Martini system
21941
    1POPS   CNO    1   8.690   7.282   6.751 -0.0320 -0.0623 -0.1802
    1POPS   PO4    2   9.059   7.364   6.556 -0.2459 -0.0999 -0.0293
    1POPS   GL1    3   9.104   7.506   6.078  0.0638 -0.0487 -0.0061
    1POPS   GL2    4   8.984   7.277   5.749 -0.3700  0.1307  0.1308
    1POPS   C1A    5   9.133   7.779   5.679 -0.1900 -0.2131  0.1303
    1POPS   D2A    6   9.312   7.906   5.192  0.1218 -0.1315  0.0246
    1POPS   C3A    7   9.745   7.706   5.009  0.0226  0.0784  0.0389
    1POPS   C4A    8  10.137   7.665   5.166  0.2158 -0.0041  0.2679
    1POPS   C1B    9   8.797   7.376   5.382 -0.0222 -0.0239  0.1212
    1POPS   C2B   10   8.566   7.266   4.959 -0.2796  0.0146  0.0491
    1POPS   C3B   11   8.642   7.083   4.536 -0.3648  0.2467  0.1642
    1POPS   C4B   12   8.445   6.962   4.155 -0.0945 -0.2071 -0.0288
    2POSM   NC3   13   8.661   8.063   6.950 -0.1958 -0.2254  0.1859
    2POSM   PO4   14   8.617   8.176   6.508  0.2106  0.0250 -0.0926
    2POSM   AM1   15   8.715   8.025   6.118 -0.3889  0.3506 -0.1156
    2POSM   AM2   16   8.626   7.711   6.079 -0.1125  0.0158 -0.0397
    2POSM   T1A   17   8.916   8.227   5.773 -0.4667 -0.2793  0.1255
    2POSM   C2A   18   9.035   8.520   5.430 -0.3013 -0.4300  0.1284
    2POSM   C3A   19   9.161   8.637   5.003 -0.0195 -0.0355  0.0161
    2POSM   C1B   20   8.594   7.778   5.705  0.1202 -0.1690  0.1027
    2POSM   D2B   21   8.788   7.977   5.316 -0.2518  0.1327 -0.0300
    2POSM   C3B   22   8.868   7.710   4.950 -0.0336 -0.0966 -0.1380
    2POSM   C4B   23   8.805   7.596   4.518 -0.1322  0.1113  0.4034
    3CHOL   ROH   24   7.697   8.171   6.018  0.0895 -0.1703  0.1512
    3CHOL    R1   25   7.653   8.229   5.744  0.1973  0.0281  0.1744
    3CHOL    R2   26   7.857   8.303   5.573  0.3539 -0.3438  0.1960
    3CHOL    R3   27   7.764   8.095   5.424 -0.1036 -0.0969  0.1183
    3CHOL    R4   28   7.883   8.279   5.229  0.3407 -0.2859  0.1907
    3CHOL    R5   29   7.680   8.198   5.225  0.1444  0.1661  0.1417
    3CHOL    C1   30   7.810   8.071   4.889 -0.0965 -0.0204  0.1146
    3CHOL    C2   31   7.635   8.299   4.670  0.2278 -0.0552 -0.0868
    4POPC   NC3   32   9.133   8.233   6.344 -0.1098  0.1531 -0.4143
    4POPC   PO4   33   9.354   8.509   6.286  0.0727 -0.1188 -0.1573
    4POPC   GL1   34   9.573   8.767   5.967 -0.3641 -0.1097 -0.2305
    4POPC   GL2   35   9.887   8.866   5.907 -0.0242 -0.2285 -0.1300
    4POPC   C1A   36   9.466   8.810   5.543 -0.1379  0.1292 -0.2957
    4POPC   D2A   37   9.585   8.922   5.201 -0.0283 -0.0606 -0.0273
    4POPC   C3A   38   9.623   8.804   4.712 -0.2642  0.0042  0.3088
    4POPC   C4A   39   9.548   8.610   4.308 -0.0266 -0.1083  0.0255
    4POPC   C1B   40   9.928   9.116   5.537 -0.1773  0.3323  0.0891
    4POPC   C2B   41  10.071   9.031   5.097 -0.1877 -0.1939 -0.0450
    4POPC   C3B   42  10.115   9.033   4.680 -0.1503  0.1362 -0.3983
    4POPC   C4B   43  10.484   9.209   4.472 -0.3998 -0.0956 -0.1891
    5POPE   NH3   44   8.090   8.176   6.374 -0.0994 -0.1661 -0.1904
    5POPE   PO4   45   7.823   7.807   6.530  0.1034  0.2514  0.1560
    5POPE   GL1   46   7.982   7.748   6.099 -0.1205 -0.0005 -0.1179
    5POPE   GL2   47   8.189   8.017   5.914 -0.1019  0.1722  0.3494
    5POPE   C1A   48   7.818   7.723   5.719  0.0396  0.0052 -0.0075
    5POPE   D2A   49   7.828   7.580   5.391  0.0802  0.1774 -0.0157
    5POPE   C3A   50   7.613   7.662   5.081 -0.2364  0.0380 -0.1517
    5POPE   C4A   51   7.423   7.814   4.740  0.1433 -0.1271  0.1141
    5POPE   C1B   52   8.230   7.921   5.468  0.1720  0.2535  0.4012
    5POPE   C2B   53   8.285   7.821   5.042 -0.1468  0.3221  0.0900
    5POPE   C3B   54   8.436   7.920   4.691 -0.1561 -0.1445 -0.1243
    5POPE   C4B   55   8.723   8.128   4.366  0.5089 -0.0998  0.0684
    6POPS   CNO   56   7.813   9.061   6.263 -0.2082  0.1565  0.0400
    6POPS   PO4   57   7.852   8.636   6.380  0.3126 -0.0351  0.0852
    6POPS   GL1   58   7.938   8.671   5.907  0.1428  0.0522  0.0527
    6POPS   GL2   59   8.302   8.545   6.009  0.0256 -0.0172  0.0501
    6POPS   C1A   60   8.097   8.772   5.576  0.2765 -0.1509  0.0329
    6POPS   D2A   61   8.190   8.790   5.108 -0.0247  0.0570 -0.1296
    6POPS   C3A   62   8.224   8.536   4.828  0.0041 -0.0141 -0.0472
    6POPS   C4A   63   8.224   8.356   4.474  0.1285  0.2387  0.1293
    6POPS   C1B   64   8.367   8.368   5.612 -0.2859  0.0161 -0.3111
    6POPS   C2B   65   8.445   8.331   5.240  0.4403  0.1039  0.3771
    6POPS   C3B   66   8.731   8.337   4.824  0.1507  0.0082  0.1512
    6POPS   C4B   67   9.168   8.281   4.657  0.2176  0.0214  0.4321
    7POSM   NC3   68   9.393   7.603   6.810  0.3698 -0.1776  0.0772
    7POSM   PO4   69   9.348   7.813   6.438 -0.2774  0.0709  0.2755
    7POSM   AM1   70   9.545   7.803   6.043 -0.2545  0.0739  0.0571
    7POSM   AM2   71   9.583   8.179   5.987 -0.0853  0.1404 -0.0007
    7POSM   T1A   72   9.691   7.818   5.522 -0.4124 -0.0910  0.0397
    7POSM   C2A   73  10.008   8.086   5.342 -0.0522 -0.0361 -0.1386
    7POSM   C3A   74  10.414   8.311   5.431 -0.0524 -0.0432 -0.0486
    7POSM   C1B   75   9.482   8.253   5.600  0.0453  0.0559 -0.5319
    7POSM   D2B   76   9.471   8.366   5.208 -0.1913 -0.0394  0.0361
    7POSM   C3B   77   9.668   8.211   4.806  0.0307  0.0334  0.0455
    7POSM   C4B   78  10.072   8.084   4.742  0.1003  0.1072  0.1512
    8CHOL   ROH   79   8.904   6.731   5.873 -0.2873  0.1568 -0.0712
    8CHOL    R1   80   8.872   6.844   5.615  0.0067  0.2528 -0.0692
    8CHOL    R2   81   9.085   6.887   5.444  0.1407 -0.2333 -0.0425
    8CHOL    R3   82   8.933   6.741   5.272 -0.1903  0.1214 -0.0662
    8CHOL    R4   83   9.131   6.874   5.102  0.2432 -0.4383 -0.0227
    8CHOL    R5   84   8.915   6.879   5.077  0.2521  0.1335 -0.1089
    8CHOL    C1   85   9.016   6.730   4.741 -0.0078 -0.2246 -0.0334
    8CHOL    C2   86   8.736   6.606   4.407  0.0623  0.0728 -0.0651
    9POPS   CNO   87   8.681   9.021   6.690  0.2408 -0.1132  0.0653
    9POPS   PO4   88   8.685   9.131   6.144  0.0752  0.2678  0.0055
    9POPS   GL1   89   8.782   9.063   5.749 -0.0702  0.0479  0.0618
    9POPS   GL2   90   8.595   8.794   5.606 -0.0624 -0.1698 -0.1017
    9POPS   C1A   91   9.028   9.093   5.461  0.2712  0.3240  0.2261
    9POPS   D2A   92   9.121   9.178   5.006  0.1689  0.0888  0.2429
    9POPS   C3A   93   8.891   9.325   4.721  0.0964 -0.1886  0.4370
    9POPS   C4A   94   8.855   9.337   4.253 -0.4351 -0.2325 -0.3370
    9POPS   C1B   95   8.739   8.774   5.097 -0.0868  0.1438  0.2295
    9POPS   C2B   96   8.636   8.867   4.706  0.1154 -0.1536  0.3027
    9POPS   C3B   97   8.825   8.642   4.365  0.2905  0.3650  0.0479
    9POPS   C4B   98   8.789   8.858   3.921 -0.2378  0.0833 -0.1788
   10CHOL   ROH   99   8.995   9.518   5.983  0.1450 -0.0012 -0.1063
   10CHOL    R1  100   8.918   9.588   5.720  0.0472  0.0516 -0.0637
   10CHOL    R2  101   9.059   9.769   5.566  0.0551 -0.0074 -0.1189
   10CHOL    R3  102   9.064   9.565   5.387 -0.1299  0.0051 -0.1405
   10CHOL    R4  103   9.154   9.800   5.235 -0.1079 -0.0094 -0.1668
   10CHOL    R5  104   8.991   9.665   5.182 -0.1998  0.0623 -0.0929
   10CHOL    C1  105   9.213   9.626   4.874 -0.3765  0.0012 -0.2150
   10CHOL    C2  106   9.291   9.497   4.509 -0.1529 -0.1549 -0.0500
   11CHOL   ROH  107   7.099   8.104   6.212  0.2986 -0.0150 -0.0960
   11CHOL    R1  108   7.247   8.126   5.971  0.1760 -0.1750 -0.1888
   11CHOL    R2  109   7.265   7.919   5.788 -0.1030 -0.2225 -0.1720
   11CHOL    R3  110   7.176   8.109   5.615 -0.0523 -0.1734 -0.1437
   11CHOL    R4  111   7.264   7.888   5.444 -0.0720 -0.1444 -0.1790
   11CHOL    R5  112   7.327   8.095   5.430 -0.0380 -0.1560 -0.1293
   11CHOL    C1  113   7.181   8.047   5.081 -0.0062 -0.0529 -0.1566
   11CHOL    C2  114   7.144   8.287   4.712 -0.1782 -0.0231 -0.0761
   12POPE   NH3  115   7.069   9.048   6.466  0.1443  0.0284 -0.3040
   12POPE   PO4  116   7.238   9.382   6.270  0.2405  0.4724 -0.2255
   12POPE   GL1  117   7.333   8.994   5.993  0.0161 -0.1562 -0.2545
   12POPE   GL2  118   7.391   8.613   6.150  0.1369 -0.3427  0.1174
   12POPE   C1A  119   7.643   9.053   5.718 -0.1329 -0.2002 -0.3076
   12POPE   D2A  120   7.666   9.014   5.340  0.0784 -0.1172  0.0615
   12POPE   C3A  121   7.947   9.190   5.123 -0.1272 -0.3608 -0.0256
   12POPE   C4A  122   8.084   9.537   4.953  0.4461 -0.1226 -0.2545
   12POPE   C1B  123   7.338   8.574   5.779  0.0477  0.1005 -0.1307
   12POPE   C2B  124   7.456   8.592   5.460  0.1382 -0.1419 -0.2449
   12POPE   C3B  125   7.460   8.602   4.979  0.0011  0.2900 -0.0979
   12POPE   C4B  126   7.844   8.857   4.741 -0.0725 -0.1065 -0.0939
   13POPE   NH3  127   9.991   8.084   6.260  0.1177 -0.4890  0.1072
   13POPE   PO4  128   9.951   8.525   6.389 -0.0511 -0.1814 -0.2601
   13POPE   GL1  129  10.280   8.588   6.067 -0.1543 -0.2840 -0.1566
   13POPE   GL2  130  10.106   8.342   5.797  0.0054  0.2205 -0.0758
   13POPE   C1A  131  10.348   8.786   5.692  0.1509  0.0092  0.0167
   13POPE   D2A  132  10.518   8.784   5.257  0.0892  0.1171  0.2471
   13POPE   C3A  133  10.654   9.006   4.903 -0.1575 -0.0112  0.2839
   13POPE   C4A  134  10.932   9.264   4.674  0.1480 -0.0499 -0.0407
   13POPE   C1B  135   9.954   8.580   5.475 -0.0953 -0.0914 -0.0898
   13POPE   C2B  136  10.021   8.473   5.042 -0.0294  0.0033 -0.2549
   13POPE   C3B  137  10.429   8.390   4.931  0.1187 -0.1856 -0.2600
   13POPE   C4B  138  10.703   8.593   4.609 -0.1687  0.1563  0.1088
   14POSM   NC3  139   8.516   6.682   6.847  0.0167  0.2032 -0.0869
   14POSM   PO4  140   8.383   6.891   6.534  0.1637 -0.2869 -0.0974
   14POSM   AM1  141   8.306   6.960   6.157 -0.2095 -0.0459 -0.0908
   14POSM   AM2  142   8.217   7.245   6.173  0.1130  0.1328 -0.0755
   14POSM   T1A  143   8.437   6.952   5.827  0.3123  0.1035 -0.0680
   14POSM   C2A  144   8.427   6.997   5.411 -0.0311  0.0130 -0.0282
   14POSM   C3A  145   8.450   6.793   4.967  0.0700  0.4811  0.1944
   14POSM   C1B  146   8.245   7.434   5.753  0.1676 -0.0794 -0.0722
   14POSM   D2B  147   8.306   7.462   5.346 -0.1051 -0.1496  0.0700
   14POSM   C3B  148   8.048   7.187   5.086 -0.2031 -0.0188  0.0216
   14POSM   C4B  149   7.628   7.231   4.684 -0.3012 -0.2875  0.2093
   15POPC   NC3  150  10.232   9.028   6.350 -0.2873  0.0915  0.0897
   15POPC   PO4  151  10.012   9.365   6.359  0.4835 -0.3058 -0.0168
   15POPC   GL1  152  10.066   9.350   5.910 -0.3059 -0.2274  0.2126
   15POPC   GL2  153  10.358   9.306   5.817  0.1848 -0.3937  0.0929
   15POPC   C1A  154   9.852   9.593   5.630 -0.0807  0.0449  0.0535
   15POPC   D2A  155   9.985   9.531   5.172 -0.2299 -0.2186  0.1764
   15POPC   C3A  156  10.172   9.930   4.977  0.0756 -0.1586 -0.0815
   15POPC   C4A  157  10.205  10.027   4.541 -0.0004 -0.1386  0.1296
   15POPC   C1B  158  10.430   9.284   5.396 -0.2375  0.0586  0.1502
   15POPC   C2B  159  10.394   9.419   4.967  0.1777  0.0104 -0.2843
   15POPC   C3B  160  10.113   9.534   4.657  0.0862 -0.1476 -0.0769
   15POPC   C4B  161  10.229   9.555   4.254  0.0650 -0.2352 -0.2566
   16POPE   NH3  162   7.743   7.350   6.344 -0.1085 -0.0490 -0.1769
   16POPE   PO4  163   7.285   7.275   6.444 -0.0798 -0.3205  0.1710
   16POPE   GL1  164   7.242   7.158   6.052  0.1106 -0.0441 -0.0507
   16POPE   GL2  165   7.327   7.334   5.817  0.0264 -0.2802  0.0488
   16POPE   C1A  166   7.354   6.857   5.752 -0.3966 -0.1509  0.0618
   16POPE   D2A  167   7.498   6.540   5.671  0.1600 -0.0672  0.2062
   16POPE   C3A  168   7.555   6.476   5.262  0.2129  0.2396 -0.1458
   16POPE   C4A  169   7.345   6.486   4.842  0.1838  0.0525  0.1318
   16POPE   C1B  170   7.359   7.381   5.407 -0.1649 -0.0352 -0.2051
   16POPE   C2B  171   7.160   7.423   5.018  0.1083  0.0041  0.1179
   16POPE   C3B  172   7.052   7.418   4.613 -0.4594 -0.0251 -0.1042
   16POPE   C4B  173   7.436   7.510   4.362  0.0923 -0.1197 -0.1797
   17POPS   CNO  174   8.084   9.946   6.346  0.1075 -0.2619 -0.4549
   17POPS   PO4  175   8.176   9.477   6.347  0.0703  0.0743  0.4791
   17POPS   GL1  176   8.168   9.584   5.906  0.4267 -0.1528 -0.0597
   17POPS   GL2  177   8.442   9.534   5.843  0.0509 -0.2252  0.2054
   17POPS   C1A  178   7.979   9.531   5.570  0.0184 -0.2426 -0.1868
   17POPS   D2A  179   7.699   9.830   5.476 -0.0941 -0.1709  0.2662
   17POPS   C3A  180   7.305   9.982   5.519 -0.0638 -0.0844 -0.2652
   17POPS   C4A  181   6.943   9.880   5.668 -0.0048 -0.1911 -0.1983
   17POPS   C1B  182   8.533   9.409   5.433 -0.2996  0.1909  0.0544
   17POPS   C2B  183   8.550   9.262   5.044 -0.1375 -0.2074  0.2324
   17POPS   C3B  184   8.260   9.121   4.719 -0.1991 -0.1801  0.1539
   17POPS   C4B  185   8.063   9.242   4.418 -0.0169  0.0110 -0.1212
   18CHOL   ROH  186   7.316   9.477   5.735 -0.1923 -0.0949  0.1530
   18CHOL    R1  187   7.342   9.387   5.468 -0.2413 -0.0300  0.1254
   18CHOL    R2  188   7.229   9.520   5.255 -0.0418  0.1820  0.1498
   18CHOL    R3  189   7.483   9.516   5.158 -0.0237 -0.0808  0.2017
   18CHOL    R4  190   7.313   9.496   4.920 -0.0075  0.2850  0.1504
   18CHOL    R5  191   7.475   9.360   4.976 -0.1867  0.0402  0.1014
   18CHOL    C1  192   7.600   9.477   4.635  0.0295  0.0982  0.1996
   18CHOL    C2  193   7.601   9.150   4.350 -0.1931  0.2951 -0.0249
   19POPS   CNO  194   9.828   7.767   6.615 -0.1219 -0.3263  0.2180
   19POPS   PO4  195  10.009   7.605   6.265 -0.2031  0.1747 -0.1116
   19POPS   GL1  196   9.822   7.423   5.861 -0.4088 -0.4849 -0.1536
   19POPS   GL2  197   9.488   7.339   5.780  0.0056 -0.1635  0.0661
   19POPS   C1A  198   9.805   7.208   5.448  0.3628 -0.5197 -0.0673
   19POPS   D2A  199   9.861   7.202   5.012  0.4708 -0.2402 -0.3493
   19POPS   C3A  200  10.034   7.028   4.779 -0.2600  0.0750  0.5641
   19POPS   C4A  201  10.222   6.990   4.381 -0.1021 -0.1892 -0.1459
   19POPS   C1B  202   9.320   7.410   5.388  0.1093  0.0221 -0.0122
   19POPS   C2B  203   9.335   7.319   4.993  0.1465  0.2722 -0.2388
   19POPS   C3B  204   9.189   7.233   4.624 -0.0419  0.1010 -0.2170
   19POPS   C4B  205   9.070   7.237   4.201  0.1975 -0.2871  0.1703
   20POPE   NH3  206   9.385   9.869   6.752 -0.0493 -0.1767 -0.0299
   20POPE   PO4  207   9.184   9.959   6.337 -0.1654  0.0104 -0.2606
   20POPE   GL1  208   8.973  10.198   5.988  0.1085 -0.0396 -0.0866
   20POPE   GL2  209   8.642  10.016   5.883 -0.2520  0.1129 -0.0207
   20POPE   C1A  210   8.748  10.418   5.619 -0.2139  0.0017 -0.1569
   20POPE   D2A  211   8.762  10.399   5.161  0.0553 -0.0705 -0.2070
   20POPE   C3A  212   8.898  10.082   4.929  0.0671  0.0765  0.0126
   20POPE   C4A  213   8.763   9.951   4.565 -0.1744 -0.1014 -0.2546
   20POPE   C1B  214   8.626   9.886   5.441 -0.0795 -0.1392  0.0957
   20POPE   C2B  215   8.494   9.844   5.024  0.2508  0.2036 -0.0507
   20POPE   C3B  216   8.188   9.970   4.712  0.3757  0.2447  0.0335
   20POPE   C4B  217   7.977  10.270   4.349 -0.0555  0.0419  0.1949
   21POPE   NH3  218  11.292   7.320   6.321 -0.0722 -0.3899 -0.0675
   21POPE   PO4  219  10.900   7.382   6.027 -0.0984 -0.0044 -0.2163
   21POPE   GL1  220  10.890   7.435   5.641  0.2147  0.2449  0.5297
   21POPE   GL2  221  10.708   7.638   5.661 -0.1883  0.0419 -0.1045
   21POPE   C1A  222  11.000   7.471   5.171  0.1536  0.4331 -0.2754
   21POPE   D2A  223  11.120   7.571   4.704 -0.2870 -0.1216 -0.0335
   21POPE   C3A  224  11.294   7.943   4.571 -0.0827  0.0478 -0.1831
   21POPE   C4A  225  11.465   8.151   4.171 -0.1750 -0.2573 -0.1033
   21POPE   C1B  226  10.603   7.809   5.310  0.2613 -0.2733 -0.0548
   21POPE   C2B  227  10.444   7.805   4.849 -0.1309  0.0566 -0.3514
   21POPE   C3B  228  10.117   7.551   4.580  0.0939 -0.3017 -0.0067
   21POPE   C4B  229   9.692   7.414   4.603  0.0892  0.2876 -0.0001
   22POPS   CNO  230   9.606   6.109   6.409 -0.1124 -0.2188  0.0994
   22POPS   PO4  231   9.168   6.122   6.511 -0.3833  0.0243 -0.1357
   22POPS   GL1  232   9.255   6.048   6.035 -0.0578  0.2132  0.1673
   22POPS   GL2  233   9.049   5.800   5.828  0.2296 -0.2445 -0.0806
   22POPS   C1A  234   9.107   6.336   5.696  0.1137 -0.1075 -0.2170
   22POPS   D2A  235   9.154   6.310   5.327 -0.3097 -0.0730  0.2001
   22POPS   C3A  236   9.370   6.461   4.977 -0.0570 -0.2579  0.1659
   22POPS   C4A  237   9.525   6.283   4.618  0.0590  0.1758  0.1267
   22POPS   C1B  238   8.882   5.773   5.509 -0.1858 -0.2870  0.1715
   22POPS   C2B  239   8.666   5.851   5.040  0.1026  0.0012  0.1817
   22POPS   C3B  240   8.736   5.794   4.566  0.2023 -0.0831 -0.1270
   22POPS   C4B  241   9.002   5.642   4.207  0.0382  0.0253 -0.2022
   23POPC   NC3  242   6.903   7.437   6.661 -0.0196 -0.1522  0.1147
   23POPC   PO4  243   6.785   7.221   6.333 -0.1957 -0.2035  0.1007
   23POPC   GL1  244   6.503   7.289   6.039  0.0859 -0.1425 -0.1728
   23POPC   GL2  245   6.327   7.507   6.241 -0.0104 -0.0187 -0.0016
   23POPC   C1A  246   6.393   7.209   5.672  0.0621 -0.3513  0.1654
   23POPC   D2A  247   6.322   7.219   5.298 -0.2171 -0.0168 -0.1171
   23POPC   C3A  248   6.179   7.347   4.879  0.0664  0.2880  0.2816
   23POPC   C4A  249   6.466   7.480   4.603 -0.0176  0.0432 -0.1357
   23POPC   C1B  250   6.359   7.711   5.777 -0.1894  0.0915  0.2194
   23POPC   C2B  251   6.254   7.768   5.335 -0.1967  0.0631  0.1052
   23POPC   C3B  252   6.291   7.879   4.896 -0.1521  0.1572  0.1878
   23POPC   C4B  253   6.409   7.951   4.542  0.2585 -0.2161 -0.2948
   24POSM   NC3  254   9.626   8.900   6.497 -0.0593 -0.0116 -0.0265
   24POSM   PO4  255   9.572   9.409   6.616 -0.0803 -0.3352  0.0168
   24POSM   AM1  256   9.488   9.460   6.246 -0.2688 -0.1029 -0.0039
   24POSM   AM2  257   9.580   9.279   6.081 -0.1149  0.2409 -0.1133
   24POSM   T1A  258   9.450   9.801   5.912  0.0102  0.3640 -0.0463
   24POSM   C2A  259   9.556   9.937   5.482  0.0201 -0.0213 -0.0261
   24POSM   C3A  260   9.603   9.942   5.045 -0.3571 -0.1346 -0.0709
   24POSM   C1B  261   9.353   9.286   5.723  0.0680  0.0397 -0.4048
   24POSM   D2B  262   9.522   9.424   5.275 -0.0178  0.1500  0.2901
   24POSM   C3B  263   9.613   9.283   4.831 -0.1285  0.1693  0.1863
   24POSM   C4B  264   9.766   9.275   4.396  0.0490  0.1109  0.0450
   25POPS   CNO  265   7.691  10.275   6.509  0.1077  0.1967  0.0626
   25POPS   PO4  266   7.730  10.186   6.070 -0.0805 -0.1471 -0.0890
   25POPS   GL1  267   8.094  10.077   5.823 -0.0648 -0.1287  0.2222
   25POPS   GL2  268   8.264  10.327   5.721  0.0127 -0.2705 -0.0172
   25POPS   C1A  269   8.153   9.906   5.355 -0.2058 -0.2649 -0.0002
   25POPS   D2A  270   7.875  10.087   5.070 -0.1169 -0.0616 -0.2078
   25POPS   C3A  271   7.738   9.960   4.648 -0.2313  0.4238 -0.1884
   25POPS   C4A  272   7.942   9.731   4.342 -0.1035 -0.0906  0.3260
   25POPS   C1B  273   8.257  10.504   5.251  0.1704  0.0504  0.0335
   25POPS   C2B  274   8.264  10.495   4.801 -0.0924  0.0277 -0.0332
   25POPS   C3B  275   7.993  10.741   4.463  0.1770  0.0370  0.1067
   25POPS   C4B  276   7.598  10.575   4.246 -0.0694  0.0117 -0.1621
   26POSM   NC3  277   6.641   8.291   6.290  0.2083  0.0683 -0.0020
   26POSM   PO4  278   6.724   7.929   6.592  0.1470 -0.2303  0.1054
   26POSM   AM1  279   6.759   7.757   6.289  0.1585 -0.0790 -0.0672
   26POSM   AM2  280   6.944   7.583   6.067 -0.4618  0.1320 -0.0801
   26POSM   T1A  281   6.724   8.066   5.906  0.0237  0.0552  0.1082
   26POSM   C2A  282   6.731   7.996   5.443 -0.1685 -0.2631 -0.0699
   26POSM   C3A  283   6.689   8.151   5.135 -0.2205 -0.1684  0.1845
   26POSM   C1B  284   6.813   7.561   5.706 -0.0945  0.0646 -0.1908
   26POSM   D2B  285   6.758   7.446   5.266 -0.0757 -0.1274  0.1458
   26POSM   C3B  286   6.755   7.701   4.926  0.0712 -0.1572  0.1130
   26POSM   C4B  287   6.893   7.917   4.585  0.1926 -0.1183 -0.0651
   27POPS   CNO  288   5.918   7.975   6.636 -0.0627  0.1114  0.1461
   27POPS   PO4  289   6.192   7.943   6.401 -0.0173 -0.3402 -0.1736
   27POPS   GL1  290   6.243   8.153   6.032 -0.0157 -0.0070 -0.3996
   27POPS   GL2  291   6.368   8.585   6.008 -0.0462 -0.0637  0.0360
   27POPS   C1A  292   6.352   8.256   5.568  0.2782 -0.0582 -0.1195
   27POPS   D2A  293   6.328   8.592   5.257 -0.0058  0.2429 -0.2263
   27POPS   C3A  294   6.355   8.377   4.842  0.0067  0.3126 -0.2561
   27POPS   C4A  295   6.261   8.452   4.414  0.4089  0.0199 -0.2093
   27POPS   C1B  296   6.466   8.880   5.621  0.0180  0.0201  0.3145
   27POPS   C2B  297   6.668   9.017   5.202 -0.0833  0.3237 -0.1929
   27POPS   C3B  298   6.849   9.193   4.846 -0.3772  0.0426 -0.2795
   27POPS   C4B  299   7.051   9.414   4.496 -0.0675  0.0339 -0.1855
   28POPE   NH3  300  11.790   9.573   6.445 -0.1246  0.1563 -0.1177
   28POPE   PO4  301  11.396   9.534   6.231  0.3657  0.0484 -0.2490
   28POPE   GL1  302  11.283   9.594   5.792 -0.0830 -0.1190  0.1742
   28POPE   GL2  303  11.124   9.416   5.686 -0.2143 -0.0773  0.1017
   28POPE   C1A  304  11.372   9.714   5.301 -0.1110  0.3258  0.2450
   28POPE   D2A  305  11.051   9.661   4.948  0.3326  0.1720 -0.0818
   28POPE   C3A  306  11.177   9.684   4.608  0.1138  0.1489 -0.1354
   28POPE   C4A  307  11.193   9.918   4.233 -0.0846 -0.3544  0.1909
   28POPE   C1B  308  10.899   9.527   5.378  0.2669  0.2824  0.2580
   28POPE   C2B  309  10.660   9.886   5.201 -0.1511  0.0538 -0.0809
   28POPE   C3B  310  10.686  10.100   4.771  0.2489  0.1801 -0.0922
   28POPE   C4B  311  10.932  10.333   4.455  0.1273  0.1410 -0.1381
   29POSM   NC3  312   7.098   6.804   6.385 -0.0119 -0.0735 -0.2280
   29POSM   PO4  313   7.591   6.909   6.383  0.4129  0.0661  0.0271
   29POSM   AM1  314   7.830   6.901   6.030  0.1715  0.0302 -0.1923
   29POSM   AM2  315   7.794   7.250   5.867 -0.0452 -0.0132  0.1274
   29POSM   T1A  316   8.059   6.664   5.701 -0.1444  0.0192 -0.0485
   29POSM   C2A  317   8.034   6.594   5.242  0.0231 -0.0680 -0.1126
   29POSM   C3A  318   8.227   6.328   4.934  0.2229  0.1800  0.4273
   29POSM   C1B  319   7.741   7.040   5.508  0.0684 -0.1516 -0.0547
   29POSM   D2B  320   7.599   6.973   5.088  0.2210 -0.1009 -0.0466
   29POSM   C3B  321   7.846   6.762   4.756  0.2578 -0.0611 -0.1360
   29POSM   C4B  322   8.210   6.668   4.532  0.4393  0.2739  0.1469
   30POPE   NH3  323   8.089  10.486   6.211 -0.0276  0.1747 -0.3620
   30POPE   PO4  324   8.113  10.932   6.255 -0.3976 -0.1475  0.0321
   30POPE   GL1  325   7.871  10.794   5.832  0.0335  0.1343  0.1862
   30POPE   GL2  326   7.753  10.534   5.755  0.2555  0.2340 -0.1712
   30POPE   C1A  327   7.887  10.883   5.416  0.0584 -0.1368  0.0648
   30POPE   D2A  328   7.947  10.867   4.961  0.1697  0.1894 -0.0125
   30POPE   C3A  329   7.723  10.461   4.815  0.0774 -0.0093  0.1672
   30POPE   C4A  330   7.377  10.352   4.625 -0.0926  0.1538 -0.3884
   30POPE   C1B  331   7.590  10.389   5.385 -0.0570  0.2590 -0.0982
   30POPE   C2B  332   7.382  10.019   5.004  0.3284 -0.1632  0.1385
   30POPE   C3B  333   7.205   9.895   4.577 -0.0370 -0.1053 -0.2710
   30POPE   C4B  334   7.018   9.926   4.189 -0.0001 -0.0078  0.1306
   31POPE   NH3  335  10.970   9.259   6.198  0.2721 -0.0883  0.1904
   31POPE   PO4  336  10.692   8.960   6.190  0.0320 -0.1502 -0.0837
   31POPE   GL1  337  10.843   8.851   5.861 -0.0696  0.0616 -0.2541
   31POPE   GL2  338  10.793   8.514   5.694 -0.2148 -0.1324  0.0252
   31POPE   C1A  339  10.874   9.022   5.417 -0.0321  0.2201 -0.0815
   31POPE   D2A  340  11.155   9.159   5.145  0.0405  0.2116  0.2368
   31POPE   C3A  341  11.230   8.897   4.753  0.0773  0.0933 -0.1651
   31POPE   C4A  342  11.448   8.654   4.359  0.1893  0.1431  0.2182
   31POPE   C1B  343  10.970   8.562   5.221 -0.0969  0.0556  0.4188
   31POPE   C2B  344  11.206   8.424   4.894  0.0360  0.0181  0.1008
   31POPE   C3B  345  11.085   8.354   4.433  0.1455 -0.1522 -0.2593
   31POPE   C4B  346  11.002   8.425   4.110  0.1063  0.0797  0.1883
   32POSM   NC3  347   8.097   5.740   6.659 -0.2726  0.1162  0.4304
   32POSM   PO4  348   8.295   5.943   6.325 -0.1983  0.1786  0.2137
   32POSM   AM1  349   8.152   6.241   5.984 -0.0452 -0.1623 -0.1544
   32POSM   AM2  350   8.337   6.453   6.088  0.0676 -0.2467 -0.1324
   32POSM   T1A  351   7.917   6.196   5.552  0.2344  0.4116  0.0502
   32POSM   C2A  352   7.869   5.991   5.094  0.3001 -0.3388  0.0864
   32POSM   C3A  353   7.719   5.755   4.780  0.2136  0.0501  0.2023
   32POSM   C1B  354   8.552   6.401   5.759 -0.0504  0.2371 -0.0904
   32POSM   D2B  355   8.528   6.499   5.447 -0.1391  0.1213 -0.1306
   32POSM   C3B  356   8.732   6.326   5.013 -0.1005  0.1801  0.0236
   32POSM   C4B  357   9.024   6.150   4.727 -0.4139 -0.1131  0.0395
   33POSM   NC3  358  12.732   9.666   6.748 -0.1032  0.1225  0.1288
   33POSM   PO4  359  12.255   9.708   6.513 -0.2894 -0.0563  0.1983
   33POSM   AM1  360  12.078   9.764   6.095  0.1687 -0.1108 -0.0687
   33POSM   AM2  361  11.818   9.526   5.935  0.2277 -0.1288  0.2285
   33POSM   T1A  362  12.039  10.051   5.734  0.0248  0.3198 -0.0175
   33POSM   C2A  363  11.839  10.369   5.583  0.2228 -0.1224 -0.3002
   33POSM   C3A  364  12.088  10.383   5.167 -0.2532 -0.2510  0.0337
   33POSM   C1B  365  11.736   9.685   5.609 -0.0098 -0.2403  0.1315
   33POSM   D2B  366  11.912   9.565   5.137  0.0645  0.0930  0.2143
   33POSM   C3B  367  11.704   9.722   4.749  0.1899 -0.2976  0.1269
   33POSM   C4B  368  11.644   9.666   4.367 -0.0721  0.2784  0.1505
   34POPE   NH3  369   9.345   6.579   6.290  0.1361 -0.0181 -0.1171
   34POPE   PO4  370   9.219   6.966   6.153  0.0097  0.0143  0.0482
   34POPE   GL1  371   9.658   6.922   5.961  0.1081  0.2558  0.0534
   34POPE   GL2  372   9.457   6.702   5.756  0.3214 -0.2138  0.1872
   34POPE   C1A  373   9.943   6.725   5.618 -0.2323  0.0228  0.0506
   34POPE   D2A  374  10.304   6.845   5.488 -0.2339 -0.1072  0.1945
   34POPE   C3A  375  10.348   6.784   5.109 -0.0424 -0.2070 -0.0636
   34POPE   C4A  376  10.392   6.706   4.754  0.0252  0.1956 -0.1667
   34POPE   C1B  377   9.530   6.805   5.340 -0.0963  0.0146 -0.0113
   34POPE   C2B  378   9.862   6.669   5.121 -0.0950 -0.0684  0.0001
   34POPE   C3B  379  10.074   6.382   4.894 -0.0345  0.1218  0.0425
   34POPE   C4B  380  10.255   6.296   4.496 -0.0844 -0.1332 -0.1560
   35POPC   NC3  381  10.422   7.238   6.344  0.1843  0.0950  0.1963
   35POPC   PO4  382  10.006   7.118   6.258 -0.1338 -0.1484  0.2751
   35POPC   GL1  383  10.276   7.157   5.903 -0.1179  0.1077 -0.0347
   35POPC   GL2  384  10.624   7.018   5.790 -0.0208 -0.1058 -0.0630
   35POPC   C1A  385  10.384   7.342   5.460 -0.0247  0.0071  0.0515
   35POPC   D2A  386  10.461   7.262   5.034  0.0970  0.1460 -0.0806
   35POPC   C3A  387  10.669   7.307   4.651 -0.1356  0.1061 -0.0294
   35POPC   C4A  388  10.916   7.674   4.293  0.0765 -0.0054 -0.2816
   35POPC   C1B  389  10.827   6.991   5.391  0.1580  0.1156 -0.0636
   35POPC   C2B  390  10.861   6.866   4.938  0.1911  0.3223 -0.1680
   35POPC   C3B  391  11.000   6.855   4.506  0.3386 -0.2857 -0.1187
   35POPC   C4B  392  11.023   6.800   4.079 -0.0723  0.1244  0.1767
   36POPC   NC3  393   7.445  10.638   6.808 -0.3131  0.0488  0.4031
   36POPC   PO4  394   7.079  10.792   6.380  0.3486  0.0871  0.1708
   36POPC   GL1  395   7.300  10.839   5.966  0.1093 -0.0267 -0.0303
   36POPC   GL2  396   7.475  11.128   5.943  0.0072 -0.2639 -0.1813
   36POPC   C1A  397   7.321  10.761   5.562  0.1691  0.1251 -0.2907
   36POPC   D2A  398   7.438  10.762   5.130  0.1532  0.0931 -0.2455
   36POPC   C3A  399   7.138  10.721   4.915 -0.2509 -0.1418  0.0053
   36POPC   C4A  400   6.954  10.627   4.519  0.2019  0.0598 -0.0440
   36POPC   C1B  401   7.122  11.230   5.613  0.0722  0.0571 -0.2406
   36POPC   C2B  402   6.975  11.121   5.248  0.4443 -0.1079 -0.1817
   36POPC   C3B  403   6.821  11.170   4.914 -0.3724 -0.2311  0.0703
   36POPC   C4B  404   7.064  11.085   4.530  0.0422  0.5340 -0.1754
   37POPC   NC3  405   7.441   8.791   6.665 -0.0112 -0.2057 -0.0099
   37POPC   PO4  406   7.019   8.559   6.432 -0.2235 -0.0951 -0.0263
   37POPC   GL1  407   6.866   8.653   6.045 -0.4714 -0.1111 -0.2763
   37POPC   GL2  408   6.857   8.978   5.999 -0.1018 -0.0374  0.0969
   37POPC   C1A  409   6.839   8.481   5.629  0.4723 -0.0322  0.0043
   37POPC   D2A  410   7.029   8.515   5.213  0.1608 -0.1632  0.0277
   37POPC   C3A  411   6.739   8.632   4.896  0.1272 -0.0792 -0.1453
   37POPC   C4A  412   6.452   8.884   4.689  0.2852 -0.1974 -0.1762
   37POPC   C1B  413   7.038   8.935   5.527 -0.3836 -0.0202 -0.0683
   37POPC   C2B  414   7.213   8.972   5.091  0.0289 -0.0819  0.1821
   37POPC   C3B  415   7.232   8.903   4.665 -0.1250  0.0439 -0.0755
   37POPC   C4B  416   6.893   8.842   4.455 -0.0469 -0.1228  0.1454
   38POPE   NH3  417   6.462   6.368   6.461 -0.2431 -0.0933 -0.2902
   38POPE   PO4  418   6.567   6.729   6.408  0.1272  0.2110 -0.1460
   38POPE   GL1  419   6.693   6.774   6.025 -0.1268  0.0677  0.1279
   38POPE   GL2  420   6.972   6.564   5.902  0.2190 -0.3596  0.1495
   38POPE   C1A  421   6.897   7.021   5.666 -0.2439 -0.2090  0.1541
   38POPE   D2A  422   6.883   6.931   5.203  0.0838  0.1165 -0.1216
   38POPE   C3A  423   7.052   6.918   4.801  0.4317 -0.0539 -0.1898
   38POPE   C4A  424   7.063   6.658   4.471  0.1344 -0.1581 -0.0524
   38POPE   C1B  425   7.049   6.542   5.403  0.1420  0.0748 -0.2187
   38POPE   C2B  426   6.911   6.401   5.016  0.3758 -0.0001  0.0414
   38POPE   C3B  427   6.947   6.171   4.587  0.2739 -0.0903  0.2678
   38POPE   C4B  428   7.320   5.927   4.526 -0.2933  0.0244 -0.2135
   39POSM   NC3  429   7.950  11.551   6.467 -0.0983 -0.1189 -0.3863
   39POSM   PO4  430   7.785  11.315   6.243  0.0931  0.0436  0.0886
   39POSM   AM1  431   7.889  11.330   5.744  0.0666  0.0767  0.0661
   39POSM   AM2  432   8.200  11.293   5.869 -0.0169 -0.0017 -0.1449
   39POSM   T1A  433   7.649  11.321   5.377  0.3044 -0.0399 -0.0086
   39POSM   C2A  434   7.382  11.303   4.977 -0.0510  0.2382  0.0741
   39POSM   C3A  435   7.570  10.958   4.658 -0.4707 -0.1025  0.2121
   39POSM   C1B  436   8.139  11.289   5.323  0.0969 -0.1723  0.0338
   39POSM   D2B  437   7.897  11.417   4.884  0.0776  0.1837  0.2752
   39POSM   C3B  438   8.122  11.263   4.612  0.2803 -0.0874 -0.0818
   39POSM   C4B  439   8.200  11.104   4.182 -0.2668  0.1430 -0.1404
   40POPS   CNO  440   8.402  10.224   6.659  0.2240 -0.1396 -0.0785
   40POPS   PO4  441   8.504  10.271   6.280  0.1668  0.1229  0.3263
   40POPS   GL1  442   8.666  10.635   6.056 -0.0886 -0.0572  0.1084
   40POPS   GL2  443   8.380  10.809   5.720 -0.1455  0.3158 -0.2459
   40POPS   C1A  444   8.899  10.876   5.693  0.1894 -0.1216 -0.2023
   40POPS   D2A  445   8.912  10.950   5.179  0.1026 -0.1464 -0.0530
   40POPS   C3A  446   9.023  10.840   4.793  0.2168  0.0067  0.1684
   40POPS   C4A  447   8.856  10.440   4.611  0.1248 -0.1901  0.0745
   40POPS   C1B  448   8.472  10.962   5.382 -0.0525  0.2909  0.1469
   40POPS   C2B  449   8.454  10.974   4.960 -0.2536 -0.2015 -0.1066
   40POPS   C3B  450   8.551  10.905   4.498 -0.3227  0.1704  0.0620
   40POPS   C4B  451   9.013  10.841   4.294  0.0772 -0.2177  0.2084
   41POPE   NH3  452   5.440   8.161   6.665 -0.1613 -0.1417 -0.0012
   41POPE   PO4  453   5.487   7.726   6.754  0.0310  0.4241 -0.2265
   41POPE   GL1  454   5.611   7.735   6.365  0.0132 -0.2777 -0.3222
   41POPE   GL2  455   5.787   8.044   6.133  0.3658 -0.1660 -0.1914
   41POPE   C1A  456   5.537   7.684   5.941  0.2659  0.1381 -0.0066
   41POPE   D2A  457   5.505   7.858   5.438  0.2507  0.0878  0.2506
   41POPE   C3A  458   5.350   7.713   5.069  0.1774  0.1093  0.1894
   41POPE   C4A  459   5.466   7.798   4.658 -0.1505  0.2632  0.0529
   41POPE   C1B  460   5.912   7.945   5.760  0.0084 -0.2136  0.0543
   41POPE   C2B  461   5.878   8.245   5.385 -0.0866  0.0105 -0.0499
   41POPE   C3B  462   5.802   8.267   4.956  0.0046 -0.0441 -0.0326
   41POPE   C4B  463   5.865   8.118   4.513 -0.0754 -0.0518 -0.4538
   42CHOL   ROH  464   5.158   7.193   5.940 -0.0234  0.0400 -0.1543
   42CHOL    R1  465   5.342   7.068   5.765  0.1038  0.2289 -0.1560
   42CHOL    R2  466   5.577   7.190   5.685  0.2418  0.2512  0.2853
   42CHOL    R3  467   5.690   6.961   5.780  0.0420  0.0455  0.0465
   42CHOL    R4  468   5.872   7.051   5.569  0.3143  0.3233  0.3751
   42CHOL    R5  469   5.780   6.854   5.586  0.2066  0.3211 -0.0405
   42CHOL    C1  470   6.148   6.755   5.590  0.1690  0.1722  0.2032
   42CHOL    C2  471   6.508   6.694   5.513 -0.2962  0.2532 -0.1602
   43POPE   NH3  472  11.004   7.870   5.975 -0.1838 -0.1194 -0.2070
   43POPE   PO4  473  11.239   8.349   6.034  0.1141 -0.0541 -0.0621
   43POPE   GL1  474  11.243   8.210   5.578  0.1282  0.1418 -0.1891
   43POPE   GL2  475  11.054   7.974   5.478  0.0283  0.0146  0.2269
   43POPE   C1A  476  11.582   8.240   5.354 -0.2237  0.0884 -0.1958
   43POPE   D2A  477  11.680   8.269   4.962 -0.2197  0.3214 -0.2905
   43POPE   C3A  478  11.700   8.264   4.588 -0.0270 -0.3197 -0.0399
   43POPE   C4A  479  11.927   8.033   4.259 -0.1521 -0.1213 -0.1723
   43POPE   C1B  480  11.072   8.005   5.075  0.0056  0.2313  0.2085
   43POPE   C2B  481  10.850   8.117   4.801 -0.0804  0.0857  0.1763
   43POPE   C3B  482  10.657   8.129   4.349  0.1845 -0.1126 -0.0558
   43POPE   C4B  483  10.565   8.218   3.879 -0.1058  0.0716 -0.1977
   44POSM   NC3  484   8.621   4.863   6.686 -0.1012  0.0610  0.2774
   44POSM   PO4  485   8.466   5.426   6.493 -0.0951 -0.1185 -0.0063
   44POSM   AM1  486   8.213   5.365   6.203  0.2629  0.3094 -0.2367
   44POSM   AM2  487   8.087   5.581   6.031  0.0902  0.0313 -0.2800
   44POSM   T1A  488   8.338   5.272   5.751 -0.1932 -0.2775 -0.1345
   44POSM   C2A  489   8.481   5.522   5.444  0.1893  0.0864  0.0886
   44POSM   C3A  490   8.357   6.027   5.367  0.1850  0.1529  0.1581
   44POSM   C1B  491   7.957   5.595   5.552  0.1566 -0.0178  0.4657
   44POSM   D2B  492   8.079   5.491   5.126 -0.3324  0.0068  0.0098
   44POSM   C3B  493   8.230   5.823   4.805 -0.2197 -0.1044  0.0808
   44POSM   C4B  494   7.947   6.146   4.578 -0.1062 -0.0530 -0.1939
   45POPE   NH3  495   8.954  10.389   6.447  0.2523 -0.0378 -0.0969
   45POPE   PO4  496   9.301  10.354   6.696  0.0166  0.3303 -0.0683
   45POPE   GL1  497   9.471  10.331   6.258 -0.0435  0.0469 -0.0438
   45POPE   GL2  498   9.782  10.357   6.321  0.0544  0.3640 -0.0244
   45POPE   C1A  499   9.412  10.358   5.805 -0.2386  0.0258  0.0657
   45POPE   D2A  500   9.222  10.515   5.449 -0.0924 -0.1784  0.1219
   45POPE   C3A  501   9.306  10.380   4.980 -0.1259 -0.3148  0.0104
   45POPE   C4A  502   9.262  10.032   4.613 -0.1287  0.0229 -0.0717
   45POPE   C1B  503   9.800  10.116   5.910 -0.0772 -0.0887  0.0865
   45POPE   C2B  504  10.084  10.040   5.641  0.0591  0.3135 -0.3499
   45POPE   C3B  505  10.447   9.768   5.612 -0.0457  0.0135 -0.5264
   45POPE   C4B  506  10.973   9.953   5.578 -0.1245 -0.0079  0.1022
   46POSM   NC3  507   7.562  13.056   6.840  0.3079  0.1928  0.3474
   46POSM   PO4  508   7.516  12.905   6.517  0.1466 -0.5343  0.1730
   46POSM   AM1  509   7.526  12.738   6.102  0.1315 -0.1773  0.2569
   46POSM   AM2  510   7.718  12.665   5.919  0.1655 -0.0555  0.0783
   46POSM   T1A  511   7.545  13.041   5.693 -0.0159 -0.3052  0.5995
   46POSM   C2A  512   7.664  13.180   5.360 -0.0275  0.2953 -0.1094
   46POSM   C3A  513   7.435  13.344   4.992  0.0271 -0.4129  0.0707
   46POSM   C1B  514   7.797  12.262   5.660 -0.2129  0.3178  0.1231
   46POSM   D2B  515   7.832  12.228   5.233  0.1146  0.2996 -0.3453
   46POSM   C3B  516   7.605  12.282   4.870  0.0666  0.0137  0.1416
   46POSM   C4B  517   7.580  12.359   4.365 -0.2562  0.1090 -0.0997
   47POPC   NC3  518   5.082   8.778   6.806  0.0547  0.0194  0.0029
   47POPC   PO4  519   5.058   8.497   6.424 -0.6211 -0.2875  0.1507
   47POPC   GL1  520   5.220   8.786   6.085  0.3894 -0.3223 -0.1608
   47POPC   GL2  521   4.915   9.062   6.108  0.5885 -0.3436  0.0214
   47POPC   C1A  522   5.585   8.808   5.779  0.0371 -0.1503  0.2599
   47POPC   D2A  523   5.968   8.664   5.643  0.2214  0.1541 -0.0074
   47POPC   C3A  524   5.826   8.690   5.175 -0.0530 -0.1942 -0.0431
   47POPC   C4A  525   5.895   8.683   4.650 -0.1262  0.0414  0.1454
   47POPC   C1B  526   4.738   9.097   5.663 -0.5394  0.0270  0.3003
   47POPC   C2B  527   4.801   9.031   5.246 -0.0869  0.2073 -0.3959
   47POPC   C3B  528   5.025   9.019   4.852  0.1459 -0.0567 -0.0719
   47POPC   C4B  529   5.029   9.223   4.501 -0.0908  0.1739  0.2216
   48POPC   NC3  530   5.581   6.177   6.739  0.0480  0.1809 -0.1595
   48POPC   PO4  531   5.990   6.371   6.678  0.0921  0.0886  0.1803
   48POPC   GL1  532   6.017   6.610   6.262 -0.0751 -0.2688  0.1028
   48POPC   GL2  533   5.776   6.599   6.120  0.0646  0.2144 -0.0217
   48POPC   C1A  534   6.138   6.977   6.060 -0.0317 -0.5036  0.3200
   48POPC   D2A  535   5.951   7.439   5.920  0.1322  0.6358  0.1688
   48POPC   C3A  536   5.853   7.526   5.494 -0.1579  0.0063 -0.2031
   48POPC   C4A  537   5.847   7.628   5.078 -0.1931 -0.2479 -0.1919
   48POPC   C1B  538   5.671   6.290   5.870  0.2600  0.3072  0.0968
   48POPC   C2B  539   5.680   6.404   5.484 -0.1591 -0.1898 -0.1116
   48POPC   C3B  540   5.964   6.375   5.166 -0.0632 -0.0975  0.1981
   48POPC   C4B  541   6.014   6.528   4.697  0.0501 -0.2348  0.2446
   49POSM   NC3  542  11.386   8.292   6.549 -0.1431 -0.2662 -0.0609
   49POSM   PO4  543  11.702   8.573   6.334  0.1843 -0.2536 -0.2558
   49POSM   AM1  544  11.537   8.792   5.954 -0.1641 -0.1179 -0.2124
   49POSM   AM2  545  11.411   9.093   6.014  0.1828 -0.1319  0.1871
   49POSM   T1A  546  11.284   8.692   5.649 -0.2536 -0.2320  0.4079
   49POSM   C2A  547  11.473   8.704   5.263 -0.1304 -0.2499  0.1354
   49POSM   C3A  548  11.807   8.735   4.823 -0.1119  0.0782  0.4647
   49POSM   C1B  549  11.638   9.155   5.559  0.0525  0.2322  0.1024
   49POSM   D2B  550  11.783   9.101   5.202 -0.2236  0.0122  0.2811
   49POSM   C3B  551  11.668   9.190   4.821 -0.2656 -0.2379 -0.1289
   49POSM   C4B  552  11.548   9.132   4.424  0.3035  0.2174  0.1616
   50POPS   CNO  553  10.801  10.634   6.572 -0.2259 -0.2858  0.1867
   50POPS   PO4  554  11.154  10.452   6.287 -0.2438  0.1177 -0.2232
   50POPS   GL1  555  11.280  10.396   5.908  0.2905 -0.1945 -0.2360
   50POPS   GL2  556  11.374  10.071   5.821  0.0238 -0.3161 -0.1519
   50POPS   C1A  557  10.995  10.504   5.601 -0.0763  0.2563 -0.2533
   50POPS   D2A  558  11.056  10.526   5.153  0.0778  0.0327 -0.1798
   50POPS   C3A  559  11.148  10.127   4.959 -0.0423 -0.0699 -0.0029
   50POPS   C4A  560  11.371  10.139   4.624 -0.2611 -0.2153 -0.0306
   50POPS   C1B  561  11.370  10.229   5.424 -0.1103  0.2408  0.0034
   50POPS   C2B  562  11.680  10.121   5.108 -0.0516 -0.2971  0.3278
   50POPS   C3B  563  11.929  10.156   4.663 -0.2378  0.0347  0.0245
   50POPS   C4B  564  12.400  10.274   4.529 -0.1128  0.1377 -0.1033
   51CHOL   ROH  565   7.661   5.210   5.686 -0.1031 -0.0979 -0.0120
   51CHOL    R1  566   7.533   5.239   5.435 -0.0227 -0.0579 -0.0487
   51CHOL    R2  567   7.511   5.482   5.306  0.0199 -0.0373 -0.0177
   51CHOL    R3  568   7.628   5.348   5.101  0.0852 -0.0059 -0.0014
   51CHOL    R4  569   7.391   5.474   4.982  0.0210 -0.1401 -0.0160
   51CHOL    R5  570   7.444   5.263   4.973  0.1266 -0.1149  0.0113
   51CHOL    C1  571   7.431   5.344   4.601  0.0828 -0.1704  0.0003
   51CHOL    C2  572   7.507   5.531   4.311  0.1612 -0.0976  0.0161
   52POPS   CNO  573   6.236  10.804   6.391  0.1332 -0.0849  0.0051
   52POPS   PO4  574   6.632  11.017   6.428  0.0696  0.2013  0.0911
   52POPS   GL1  575   6.584  10.955   6.029  0.1367 -0.0175  0.0023
   52POPS   GL2  576   6.798  10.760   5.968 -0.0180  0.1909  0.0363
   52POPS   C1A  577   6.586  11.253   5.631 -0.0807  0.0885  0.0646
   52POPS   D2A  578   6.694  11.522   5.415  0.1591  0.3978 -0.0819
   52POPS   C3A  579   6.483  11.537   5.039  0.0912 -0.0412 -0.1148
   52POPS   C4A  580   6.241  11.611   4.696 -0.4373  0.1893 -0.3655
   52POPS   C1B  581   6.793  10.760   5.576  0.2056 -0.2750  0.1362
   52POPS   C2B  582   6.658  10.663   5.129 -0.0059 -0.2326  0.3290
   52POPS   C3B  583   6.563  10.841   4.745  0.1422 -0.0534 -0.0907
   52POPS   C4B  584   6.400  10.619   4.395 -0.1392  0.2131  0.1911
   53POPS   CNO  585   7.153  10.271   6.654  0.1643  0.2445  0.0028
   53POPS   PO4  586   6.947  10.105   6.364  0.1641 -0.2506 -0.2808
   53POPS   GL1  587   6.799  10.259   5.999  0.0239  0.1439  0.1117
   53POPS   GL2  588   7.008  10.329   5.697 -0.0473 -0.1744 -0.1436
   53POPS   C1A  589   6.504  10.161   5.671  0.2226  0.1202  0.1054
   53POPS   D2A  590   6.645  10.015   5.222  0.2225 -0.3207 -0.3148
   53POPS   C3A  591   6.788   9.674   4.995  0.1607 -0.2424 -0.1502
   53POPS   C4A  592   6.649   9.708   4.551 -0.0154  0.1211  0.1234
   53POPS   C1B  593   7.014  10.327   5.253 -0.2195 -0.0715 -0.1090
   53POPS   C2B  594   6.974  10.229   4.871 -0.2093  0.1860  0.0701
   53POPS   C3B  595   6.729  10.185   4.457  0.1529 -0.0425  0.0718
   53POPS   C4B  596   6.639  10.240   4.025  0.0792 -0.0167 -0.1137
   54POPC   NC3  597  10.464   5.897   6.530  0.0337 -0.3006  0.1601
   54POPC   PO4  598  10.146   6.203   6.260  0.0765 -0.1072  0.0036
   54POPC   GL1  599   9.887   6.058   5.937 -0.2375 -0.1305  0.0840
   54POPC   GL2  600   9.748   6.271   5.946  0.1619  0.1646  0.2003
   54POPC   C1A  601   9.976   6.001   5.482 -0.2025 -0.1567 -0.2474
   54POPC   D2A  602  10.235   5.863   5.151 -0.1513  0.0714 -0.3895
   54POPC   C3A  603  10.740   5.694   5.108 -0.0377  0.0370 -0.0046
   54POPC   C4A  604  10.872   5.539   4.686 -0.1874 -0.0239  0.0191
   54POPC   C1B  605   9.614   6.337   5.486  0.0996  0.1111 -0.0499
   54POPC   C2B  606   9.633   6.031   5.074  0.5043  0.1570  0.0198
   54POPC   C3B  607   9.868   5.926   4.760 -0.1981 -0.0078 -0.0449
   54POPC   C4B  608  10.044   5.742   4.362  0.0273  0.0330 -0.0146
   55POPE   NH3  609   7.923   6.466   6.357 -0.1958 -0.2067  0.0073
   55POPE   PO4  610   7.833   6.063   6.352 -0.2423  0.0703 -0.6066
   55POPE   GL1  611   7.683   5.931   5.866  0.0695  0.1297 -0.2322
   55POPE   GL2  612   7.435   5.674   5.892 -0.1888 -0.0796  0.1490
   55POPE   C1A  613   7.434   6.036   5.542  0.0729  0.3622  0.2812
   55POPE   D2A  614   7.236   6.030   5.122  0.0118 -0.0746 -0.0763
   55POPE   C3A  615   6.802   5.825   4.952 -0.1033 -0.3218 -0.0629
   55POPE   C4A  616   6.450   5.509   4.822  0.0773  0.0902 -0.1799
   55POPE   C1B  617   7.125   5.300   5.751 -0.2974  0.1814  0.0264
   55POPE   C2B  618   7.024   5.167   5.246 -0.2307  0.1792  0.1091
   55POPE   C3B  619   6.901   5.361   4.829  0.1493 -0.1766  0.0628
   55POPE   C4B  620   6.981   5.475   4.443  0.0027  0.1472 -0.1862
   56POPC   NC3  621  11.779   8.027   6.325 -0.0021 -0.0574  0.1740
   56POPC   PO4  622  11.404   7.855   6.323  0.1392  0.0086 -0.1113
   56POPC   GL1  623  11.507   7.815   5.975 -0.1865 -0.3351 -0.1442
   56POPC   GL2  624  11.396   7.502   5.874  0.3013 -0.1593  0.0131
   56POPC   C1A  625  11.831   7.705   5.630 -0.0923  0.0685 -0.0349
   56POPC   D2A  626  11.915   7.832   5.236  0.0320 -0.1713 -0.3185
   56POPC   C3A  627  12.180   8.027   4.918  0.0825 -0.1577 -0.2571
   56POPC   C4A  628  12.154   8.407   4.711 -0.0286 -0.0558 -0.2054
   56POPC   C1B  629  11.447   7.679   5.416 -0.0636 -0.1142  0.0617
   56POPC   C2B  630  11.480   7.808   4.984 -0.2435 -0.0608  0.5068
   56POPC   C3B  631  11.765   7.746   4.704  0.0247 -0.0745  0.2194
   56POPC   C4B  632  12.157   7.627   4.552  0.0924 -0.0308  0.0396
   57POPS   CNO  633   7.883   4.060   6.247 -0.0172 -0.0599  0.0742
   57POPS   PO4  634   7.765   4.502   6.241 -0.2005 -0.0133 -0.0723
   57POPS   GL1  635   8.165   4.546   5.990  0.2335  0.0193 -0.1364
   57POPS   GL2  636   8.149   4.874   5.943 -0.2433  0.1165 -0.1134
   57POPS   C1A  637   8.397   4.458   5.580  0.2340 -0.1163 -0.0663
   57POPS   D2A  638   8.672   4.538   5.239  0.1013  0.0773 -0.2369
   57POPS   C3A  639   8.518   4.657   4.775  0.2340  0.1249 -0.1572
   57POPS   C4A  640   8.690   4.585   4.392  0.2987 -0.3528  0.3095
   57POPS   C1B  641   8.042   4.927   5.516 -0.0204 -0.0456 -0.1217
   57POPS   C2B  642   8.051   5.029   5.058 -0.2077  0.0754 -0.0386
   57POPS   C3B  643   7.985   5.290   4.711 -0.4356 -0.0165  0.0688
   57POPS   C4B  644   7.987   5.646   4.399  0.4004 -0.0224  0.1336
   58POPS   CNO  645  11.690   7.086   6.728 -0.2458  0.0519 -0.3997
   58POPS   PO4  646  11.770   7.105   6.341 -0.1178  0.2053  0.2568
   58POPS   GL1  647  11.697   6.960   5.965 -0.0512  0.0004 -0.2976
   58POPS   GL2  648  11.822   7.154   5.750  0.3099  0.1428  0.1300
   58POPS   C1A  649  11.615   6.681   5.609  0.0348 -0.3526  0.0721
   58POPS   D2A  650  11.465   6.350   5.217 -0.0627 -0.1081 -0.0280
   58POPS   C3A  651  11.571   6.166   4.755 -0.3221  0.2359  0.1432
   58POPS   C4A  652  11.631   5.941   4.354 -0.2322 -0.1808  0.0011
   58POPS   C1B  653  11.904   7.329   5.300  0.0117  0.0855  0.1506
   58POPS   C2B  654  11.506   7.291   5.035 -0.0404 -0.1370  0.2336
   58POPS   C3B  655  11.397   7.178   4.534  0.2228  0.1465 -0.3623
   58POPS   C4B  656  11.488   6.878   4.240 -0.2755  0.1536  0.2329
   59POPC   NC3  657  10.300  10.252   6.301 -0.3972  0.0101 -0.1233
   59POPC   PO4  658  10.644   9.979   6.446 -0.1002  0.2280  0.1817
   59POPC   GL1  659  10.727  10.199   5.980  0.2206 -0.2224 -0.0151
   59POPC   GL2  660  10.694  10.562   6.054  0.2526  0.1628  0.1220
   59POPC   C1A  661  10.537  10.256   5.634 -0.1681  0.0507 -0.2756
   59POPC   D2A  662  10.259  10.334   5.208 -0.1811 -0.1972  0.1641
   59POPC   C3A  663  10.311  10.409   4.840  0.0050  0.2052  0.1620
   59POPC   C4A  664  10.334  10.530   4.413  0.1303  0.1629  0.0962
   59POPC   C1B  665  10.521  10.748   5.599 -0.1312  0.0277 -0.0113
   59POPC   C2B  666  10.613  10.739   5.203  0.1999 -0.1646  0.0324
   59POPC   C3B  667  10.731  10.682   4.775  0.2693  0.0546  0.1401
   59POPC   C4B  668  10.767  10.822   4.273 -0.0409 -0.2050 -0.1873
   60POSM   NC3  669   8.378   4.139   6.212 -0.1068 -0.3522 -0.2540
   60POSM   PO4  670   8.601   4.397   6.442  0.1723 -0.1223 -0.3146
   60POSM   AM1  671   8.704   4.464   5.993 -0.1084 -0.0141 -0.1250
   60POSM   AM2  672   8.884   4.279   5.914  0.0176  0.1592  0.1105
   60POSM   T1A  673   8.634   4.842   5.704 -0.1561  0.1012  0.2458
   60POSM   C2A  674   8.509   4.998   5.354 -0.1325 -0.2921  0.1939
   60POSM   C3A  675   8.516   5.241   4.949 -0.0486  0.1918 -0.1335
   60POSM   C1B  676   8.830   4.091   5.442  0.0815 -0.2246  0.0028
   60POSM   D2B  677   8.846   4.056   5.050 -0.1287  0.1049  0.0280
   60POSM   C3B  678   8.918   4.165   4.601 -0.1350  0.1463  0.3243
   60POSM   C4B  679   9.087   4.212   4.183  0.2727  0.0013  0.0247
   61POPE   NH3  680   8.611  11.097   6.189  0.0137 -0.1310 -0.2984
   61POPE   PO4  681   8.942  10.954   6.390  0.1510  0.0725  0.2393
   61POPE   GL1  682   9.272  10.953   6.047  0.2030  0.0318 -0.0662
   61POPE   GL2  683   9.507  11.249   6.024  0.1464  0.1155 -0.0158
   61POPE   C1A  684   9.699  10.770   6.068  0.3860 -0.0263 -0.0169
   61POPE   D2A  685  10.112  10.659   5.994  0.7062 -0.0156  0.0169
   61POPE   C3A  686  10.110  10.500   5.709  0.2832 -0.3886  0.3000
   61POPE   C4A  687   9.781  10.379   5.399  0.0943  0.0683 -0.1803
   61POPE   C1B  688   9.309  11.198   5.618 -0.0159 -0.1414  0.2106
   61POPE   C2B  689   9.226  11.380   5.225  0.4807  0.1044 -0.1336
   61POPE   C3B  690   9.395  11.669   4.943  0.0451  0.2872  0.3779
   61POPE   C4B  691   9.686  11.591   4.644 -0.0749 -0.1849  0.0996
   62POPS   CNO  692   6.920  12.070   6.419 -0.2298 -0.1683  0.3892
   62POPS   PO4  693   7.139  11.723   6.270 -0.1147  0.0492 -0.0480
   62POPS   GL1  694   7.438  11.692   6.008  0.2216 -0.1510  0.2171
   62POPS   GL2  695   7.753  11.800   6.054 -0.0253 -0.1835 -0.0341
   62POPS   C1A  696   7.567  11.820   5.551 -0.1115  0.0033 -0.2583
   62POPS   D2A  697   7.483  11.817   5.089 -0.3995  0.0019 -0.1762
   62POPS   C3A  698   7.663  11.829   4.679  0.0135 -0.1054 -0.3991
   62POPS   C4A  699   7.594  11.890   4.232 -0.2122 -0.6384  0.1161
   62POPS   C1B  700   8.105  11.821   5.615  0.1085 -0.1693  0.1042
   62POPS   C2B  701   7.986  11.757   5.216  0.1492 -0.0908 -0.0229
   62POPS   C3B  702   8.162  11.793   4.768  0.0171  0.1934  0.1754
   62POPS   C4B  703   8.430  11.635   4.469 -0.3339  0.0715 -0.0227
   63POSM   NC3  704   4.940   9.367   7.275 -0.2747 -0.0565 -0.1756
   63POSM   PO4  705   4.972   9.319   6.881  0.0287  0.1988 -0.0474
   63POSM   AM1  706   5.210   9.180   6.531  0.0368  0.2167 -0.0480
   63POSM   AM2  707   5.571   9.257   6.582  0.0291 -0.1408 -0.0401
   63POSM   T1A  708   5.305   9.393   6.110  0.2179  0.1908  0.0353
   63POSM   C2A  709   5.276   9.237   5.744 -0.5199  0.4035 -0.0634
   63POSM   C3A  710   5.246   9.385   5.273  0.0983  0.2117  0.0512
   63POSM   C1B  711   5.664   9.102   6.178  0.2023 -0.0675 -0.0404
   63POSM   D2B  712   6.073   9.105   5.968  0.0881  0.2741 -0.1649
   63POSM   C3B  713   6.449   9.411   5.821  0.1424  0.0605  0.1008
   63POSM   C4B  714   6.733   9.494   5.448  0.1972  0.1928 -0.1824
   64POPS   CNO  715   8.204  11.946   6.356  0.1262  0.0983 -0.4448
   64POPS   PO4  716   8.469  11.585   6.213  0.2197 -0.2446 -0.2696
   64POPS   GL1  717   8.571  11.610   5.772 -0.1366 -0.0921 -0.1880
   64POPS   GL2  718   8.652  11.334   5.688  0.0151  0.0346 -0.1097
   64POPS   C1A  719   8.444  11.904   5.290  0.0875 -0.0712  0.1358
   64POPS   D2A  720   8.315  12.208   4.888 -0.0489 -0.0696 -0.1917
   64POPS   C3A  721   8.589  12.138   4.487  0.1120 -0.3773  0.0688
   64POPS   C4A  722   8.860  11.992   4.227 -0.0672 -0.0127 -0.1372
   64POPS   C1B  723   8.730  11.402   5.294 -0.0150  0.1725  0.0121
   64POPS   C2B  724   8.713  11.371   4.835  0.0541  0.1050  0.2119
   64POPS   C3B  725   8.903  11.305   4.382 -0.1328  0.1913  0.0041
   64POPS   C4B  726   8.671  11.358   4.015 -0.0273 -0.0271 -0.2514
   65POSM   NC3  727   4.596   7.465   6.747 -0.2240 -0.1391  0.2030
   65POSM   PO4  728   4.148   7.544   6.753  0.0045  0.3091 -0.1520
   65POSM   AM1  729   4.149   7.304   6.404  0.0354 -0.1954  0.0822
   65POSM   AM2  730   4.254   7.338   6.212 -0.2169 -0.2209 -0.0004
   65POSM   T1A  731   3.772   7.238   6.130 -0.0923 -0.1301 -0.2592
   65POSM   C2A  732   3.452   7.259   5.807  0.4057  0.2447 -0.1054
   65POSM   C3A  733   3.420   7.194   5.351 -0.1229  0.0561  0.1801
   65POSM   C1B  734   4.386   7.309   5.852  0.0657  0.0906  0.2331
   65POSM   D2B  735   4.706   7.447   5.698 -0.1577 -0.2593 -0.2364
   65POSM   C3B  736   4.733   7.536   5.284 -0.1174  0.4406 -0.0308
   65POSM   C4B  737   4.921   7.346   4.906 -0.0550  0.1264  0.0120
   66POPE   NH3  738   9.304  11.306   6.467 -0.1468  0.1202  0.2140
   66POPE   PO4  739   9.304  11.728   6.341  0.5715  0.3246  0.1034
   66POPE   GL1  740   9.366  11.703   5.897 -0.2144  0.1675  0.0381
   66POPE   GL2  741   9.433  12.001   5.643 -0.1120 -0.1397 -0.2651
   66POPE   C1A  742   9.670  11.526   5.629  0.1730 -0.0433 -0.0965
   66POPE   D2A  743   9.925  11.346   5.342 -0.0753 -0.0389  0.0338
   66POPE   C3A  744   9.779  11.271   4.992  0.0741  0.1769 -0.0208
   66POPE   C4A  745   9.804  11.033   4.617 -0.2713  0.1531  0.0820
   66POPE   C1B  746   9.404  12.094   5.236 -0.0719  0.5031 -0.2154
   66POPE   C2B  747   9.263  12.348   4.894 -0.1628 -0.2640  0.1252
   66POPE   C3B  748   9.103  12.261   4.504 -0.1620 -0.0140 -0.4113
   66POPE   C4B  749   8.880  12.488   4.184  0.0899  0.1190  0.0384
   67POPC   NC3  750   7.318   5.999   6.348 -0.0208  0.1850 -0.0175
   67POPC   PO4  751   6.982   6.270   6.289  0.1084 -0.1728  0.0313
   67POPC   GL1  752   6.687   6.126   6.020 -0.3717  0.3905  0.0166
   67POPC   GL2  753   7.050   6.040   5.902 -0.2482  0.0040 -0.0773
   67POPC   C1A  754   6.241   6.227   5.867 -0.0300  0.3346 -0.0893
   67POPC   D2A  755   6.184   6.001   5.543 -0.0046 -0.0235 -0.0383
   67POPC   C3A  756   6.560   5.793   5.371  0.1424 -0.1516  0.1773
   67POPC   C4A  757   7.068   5.694   5.416  0.2175  0.3542 -0.2164
   67POPC   C1B  758   6.837   6.127   5.596 -0.0830 -0.1294  0.2947
   67POPC   C2B  759   6.577   6.252   5.329  0.0753  0.1062 -0.3320
   67POPC   C3B  760   6.408   6.552   5.036  0.4136 -0.0065 -0.0801
   67POPC   C4B  761   6.481   6.940   4.833 -0.0939 -0.0498 -0.2376
   68POSM   NC3  762   5.068   7.918   7.037 -0.0642  0.2595  0.1788
   68POSM   PO4  763   4.925   7.844   6.595  0.1583 -0.0979  0.0624
   68POSM   AM1  764   4.986   7.975   6.198  0.1282  0.1966 -0.0946
   68POSM   AM2  765   5.222   8.080   6.194 -0.1887  0.1415 -0.1532
   68POSM   T1A  766   5.061   7.742   5.806 -0.0909 -0.0630 -0.0090
   68POSM   C2A  767   5.196   7.408   5.467 -0.2148  0.1707  0.0084
   68POSM   C3A  768   5.377   7.248   5.161  0.1924  0.1138  0.0718
   68POSM   C1B  769   5.341   8.340   5.919  0.3185  0.0073  0.1936
   68POSM   D2B  770   5.481   8.452   5.521 -0.0689  0.0319  0.0998
   68POSM   C3B  771   5.358   8.258   5.221 -0.2027  0.3157 -0.1979
   68POSM   C4B  772   5.254   8.233   4.797  0.1025  0.1045  0.1723
   69CHOL   ROH  773   5.080   5.964   5.882 -0.1135 -0.0266 -0.0800
   69CHOL    R1  774   5.220   6.087   5.669 -0.0637 -0.1184 -0.1030
   69CHOL    R2  775   5.196   6.003   5.407 -0.2276 -0.0500 -0.1172
   69CHOL    R3  776   5.133   6.264   5.363  0.0002  0.0185 -0.0410
   69CHOL    R4  777   5.239   6.170   5.107 -0.0631  0.0141 -0.0581
   69CHOL    R5  778   5.306   6.344   5.218  0.0769 -0.0815 -0.0002
   69CHOL    C1  779   5.204   6.512   4.891  0.2467  0.1158  0.0479
   69CHOL    C2  780   5.307   6.861   4.730  0.0196  0.1621  0.0987
   70POSM   NC3  781  12.593   7.942   6.470 -0.1963  0.0554  0.1453
   70POSM   PO4  782  12.251   7.872   6.197  0.1265  0.0563 -0.1599
   70POSM   AM1  783  12.315   7.599   5.826 -0.0526 -0.2157 -0.0522
   70POSM   AM2  784  12.312   7.287   5.870  0.1630 -0.1971 -0.0238
   70POSM   T1A  785  12.404   7.716   5.420  0.0592  0.0626  0.4018
   70POSM   C2A  786  12.363   7.521   5.092  0.0207  0.1603 -0.3171
   70POSM   C3A  787  12.190   7.253   4.881 -0.0670 -0.0586  0.1529
   70POSM   C1B  788  12.366   7.150   5.480  0.2462 -0.1011 -0.2887
   70POSM   D2B  789  12.072   6.821   5.338 -0.2188 -0.0821 -0.3835
   70POSM   C3B  790  11.684   6.848   5.061  0.2483 -0.0078 -0.0010
   70POSM   C4B  791  11.404   6.652   4.783 -0.3016  0.0286  0.0123
   71POPS   CNO  792   8.901   3.497   6.683 -0.1970 -0.0953  0.2617
   71POPS   PO4  793   8.686   3.811   6.377  0.0841 -0.1099 -0.1753
   71POPS   GL1  794   8.649   3.797   5.931 -0.0716 -0.1062 -0.0980
   71POPS   GL2  795   8.705   3.537   5.763  0.0070  0.1460 -0.0106
   71POPS   C1A  796   8.414   3.907   5.578 -0.1905 -0.0502 -0.2842
   71POPS   D2A  797   8.379   3.928   5.177  0.0511 -0.3012 -0.0982
   71POPS   C3A  798   8.457   4.138   4.729 -0.0341 -0.0527  0.0139
   71POPS   C4A  799   8.249   4.371   4.383 -0.0270  0.0551  0.0123
   71POPS   C1B  800   8.704   3.486   5.259 -0.0569  0.1069  0.1612
   71POPS   C2B  801   8.608   3.629   4.831  0.0985  0.2122 -0.0198
   71POPS   C3B  802   8.852   3.729   4.441  0.0787 -0.1682 -0.0361
   71POPS   C4B  803   8.780   3.529   4.047 -0.2393  0.1276  0.0118
   72POPE   NH3  804   9.880  11.653   6.265  0.0793  0.1779 -0.3265
   72POPE   PO4  805  10.289  11.519   6.436  0.1642 -0.0974  0.2595
   72POPE   GL1  806  10.275  11.475   5.968 -0.0731 -0.1014  0.1847
   72POPE   GL2  807  10.117  11.604   5.765 -0.0764 -0.0705  0.0413
   72POPE   C1A  808  10.342  11.209   5.562 -0.0325 -0.1679 -0.0224
   72POPE   D2A  809  10.124  10.858   5.255  0.1439  0.1153  0.0010
   72POPE   C3A  810   9.817  10.697   5.010 -0.2236  0.2345  0.3115
   72POPE   C4A  811   9.827  10.383   4.822 -0.2170  0.0633 -0.0605
   72POPE   C1B  812   9.915  11.103   5.811 -0.0083  0.3341  0.0033
   72POPE   C2B  813   9.630  10.785   5.592 -0.1440  0.0886 -0.1936
   72POPE   C3B  814   9.394  10.887   5.110  0.2393  0.0001 -0.0055
   72POPE   C4B  815   9.338  11.221   4.697  0.0915  0.1239  0.1774
   73POPC   NC3  816   7.809  13.119   6.078 -0.3998  0.0667  0.0841
   73POPC   PO4  817   8.032  13.526   5.926 -0.1347 -0.0783  0.0004
   73POPC   GL1  818   8.153  13.409   5.562  0.0431 -0.0101 -0.0365
   73POPC   GL2  819   8.227  13.031   5.746  0.2436  0.0423  0.0321
   73POPC   C1A  820   8.183  13.035   5.195 -0.2335  0.2581 -0.1995
   73POPC   D2A  821   7.835  12.898   4.938  0.1825 -0.0028 -0.0270
   73POPC   C3A  822   7.831  12.943   4.421 -0.1657  0.4000 -0.0483
   73POPC   C4A  823   7.727  13.233   4.212  0.0140 -0.0766  0.2607
   73POPC   C1B  824   7.879  12.739   5.458  0.0469 -0.0723 -0.3290
   73POPC   C2B  825   7.492  12.676   5.229  0.0733 -0.1500  0.1935
   73POPC   C3B  826   7.409  12.740   4.749 -0.0675 -0.1283 -0.0403
   73POPC   C4B  827   7.324  12.757   4.280  0.2345  0.1143  0.3106
   74POPC   NC3  828  12.111   8.845   6.319  0.2033  0.1027 -0.0886
   74POPC   PO4  829  11.899   9.125   6.157 -0.0826 -0.0256 -0.5492
   74POPC   GL1  830  12.033   8.937   5.810  0.0009 -0.0574 -0.0321
   74POPC   GL2  831  12.147   9.258   5.645  0.3196  0.1316 -0.0480
   74POPC   C1A  832  11.979   8.676   5.556 -0.0329  0.2910  0.2480
   74POPC   D2A  833  12.122   8.331   5.317  0.2202 -0.3033  0.1981
   74POPC   C3A  834  12.488   8.448   5.049  0.1800  0.1546 -0.2927
   74POPC   C4A  835  12.748   8.604   4.643  0.1339 -0.0957  0.1548
   74POPC   C1B  836  12.330   8.944   5.351  0.2779 -0.0709  0.1958
   74POPC   C2B  837  12.284   8.903   4.898 -0.2399 -0.0707 -0.2296
   74POPC   C3B  838  12.137   9.042   4.546 -0.0115 -0.0238  0.3387
   74POPC   C4B  839  12.021   9.327   4.289 -0.2077 -0.0441  0.1373
   75POPE   NH3  840   5.209   9.741   6.557  0.0171 -0.1280  0.1729
   75POPE   PO4  841   5.363  10.124   6.389  0.0430 -0.1856 -0.0218
   75POPE   GL1  842   5.254   9.965   6.048 -0.0950  0.2877  0.1679
   75POPE   GL2  843   5.014   9.779   6.102  0.3016 -0.0326 -0.0443
   75POPE   C1A  844   5.344   9.720   5.639 -0.4911 -0.3443 -0.0246
   75POPE   D2A  845   5.665   9.770   5.366 -0.1547  0.1167 -0.2756
   75POPE   C3A  846   5.688   9.833   4.875 -0.1091  0.2205  0.6171
   75POPE   C4A  847   5.756   9.620   4.532 -0.1768  0.0022  0.3272
   75POPE   C1B  848   4.901   9.532   5.813  0.0483  0.0510  0.0643
   75POPE   C2B  849   4.714   9.550   5.385 -0.4616  0.2244  0.1748
   75POPE   C3B  850   4.797   9.469   5.010  0.4068  0.2963 -0.0298
   75POPE   C4B  851   5.246   9.522   4.842 -0.0812 -0.1117 -0.0335
   76POPS   CNO  852  13.089   7.534   6.464 -0.1085 -0.3315  0.3646
   76POPS   PO4  853  13.062   8.074   6.297  0.1458 -0.1026  0.1343
   76POPS   GL1  854  13.160   8.233   5.850 -0.0410  0.2385 -0.0252
   76POPS   GL2  855  13.427   8.450   5.861  0.3551  0.0725  0.2497
   76POPS   C1A  856  13.113   7.916   5.447  0.1296 -0.1066 -0.1298
   76POPS   D2A  857  13.036   7.748   5.133 -0.1439  0.2858 -0.1654
   76POPS   C3A  858  12.817   7.331   5.132 -0.0438  0.0887 -0.0016
   76POPS   C4A  859  12.596   6.947   5.047  0.0034 -0.0128 -0.0126
   76POPS   C1B  860  13.500   8.262   5.420  0.0526  0.2837 -0.0163
   76POPS   C2B  861  13.458   8.076   5.040 -0.3715  0.0789  0.0022
   76POPS   C3B  862  13.527   8.035   4.617 -0.3820  0.2228  0.0736
   76POPS   C4B  863  13.372   8.086   4.187  0.0908 -0.1714  0.3321
   77POPE   NH3  864   5.064   5.517   6.268 -0.3853 -0.3257  0.1526
   77POPE   PO4  865   5.420   5.839   6.427  0.0058 -0.0989 -0.1661
   77POPE   GL1  866   5.493   5.784   6.066 -0.0960  0.2081  0.2332
   77POPE   GL2  867   5.455   5.507   5.939 -0.2651 -0.0834 -0.1716
   77POPE   C1A  868   5.728   5.796   5.627  0.0135  0.1152 -0.0859
   77POPE   D2A  869   5.640   5.904   5.173 -0.0684 -0.1923 -0.1575
   77POPE   C3A  870   5.613   6.271   4.788  0.0267 -0.1629  0.1699
   77POPE   C4A  871   5.556   6.502   4.424 -0.1292 -0.1601  0.1587
   77POPE   C1B  872   5.325   5.542   5.572  0.1877  0.1409 -0.0847
   77POPE   C2B  873   5.197   5.601   5.073 -0.3750  0.0205  0.0488
   77POPE   C3B  874   5.320   5.839   4.779 -0.1585  0.0928 -0.0887
   77POPE   C4B  875   5.182   6.169   4.561 -0.4752  0.1912  0.0115
   78POPS   CNO  876   7.499   5.130   6.695 -0.0688  0.1046 -0.0733
   78POPS   PO4  877   7.093   5.196   6.561  0.0342  0.0112  0.2660
   78POPS   GL1  878   7.101   5.016   6.129 -0.1281  0.0286 -0.5615
   78POPS   GL2  879   7.374   4.631   5.991  0.2982  0.1028 -0.1612
   78POPS   C1A  880   6.902   4.752   5.835  0.2751 -0.1741  0.1129
   78POPS   D2A  881   6.662   4.901   5.539  0.0175  0.0746  0.1422
   78POPS   C3A  882   6.494   4.538   5.236  0.0322  0.0426 -0.0483
   78POPS   C4A  883   6.388   4.087   5.045 -0.1468 -0.1433  0.1318
   78POPS   C1B  884   7.573   4.711   5.589  0.1168  0.2329  0.2789
   78POPS   C2B  885   7.602   4.774   5.113  0.2550 -0.2218  0.5648
   78POPS   C3B  886   7.597   4.862   4.574  0.2120  0.1318 -0.1957
   78POPS   C4B  887   7.806   5.161   4.279  0.1206  0.2273 -0.0180
   79CHOL   ROH  888  11.378  10.918   5.961 -0.0369  0.0697  0.0949
   79CHOL    R1  889  11.235  10.907   5.717 -0.1566 -0.0415  0.1685
   79CHOL    R2  890  10.980  11.010   5.689 -0.0829  0.1570  0.1868
   79CHOL    R3  891  11.093  11.147   5.483 -0.0501 -0.1383  0.0034
   79CHOL    R4  892  10.804  11.164   5.435 -0.0748  0.3248  0.2816
   79CHOL    R5  893  10.955  11.094   5.294 -0.3286 -0.0058  0.1649
   79CHOL    C1  894  10.807  11.382   5.093 -0.0393  0.1452  0.1646
   79CHOL    C2  895  10.769  11.161   4.733  0.0314  0.0683 -0.1278
   80POPE   NH3  896   6.638  10.518   6.447  0.1441  0.1710  0.0921
   80POPE   PO4  897   6.300  10.377   6.572 -0.0353  0.0304  0.0610
   80POPE   GL1  898   6.166  10.295   6.118  0.3861  0.2682 -0.0876
   80POPE   GL2  899   6.255  10.555   5.967 -0.0594  0.1806 -0.2081
   80POPE   C1A  900   5.980  10.189   5.647  0.3126 -0.0715 -0.1361
   80POPE   D2A  901   6.118  10.141   5.187  0.2126 -0.0352 -0.3000
   80POPE   C3A  902   6.178   9.839   4.896  0.4036 -0.1499 -0.1681
   80POPE   C4A  903   6.400   9.386   4.845  0.1684 -0.0785  0.1269
   80POPE   C1B  904   6.342  10.803   5.628 -0.0266  0.0516 -0.2814
   80POPE   C2B  905   6.334  11.038   5.298 -0.0234  0.1018  0.1061
   80POPE   C3B  906   6.160  11.147   4.861  0.2702  0.0028  0.1267
   80POPE   C4B  907   6.259  11.158   4.427 -0.1520  0.5043 -0.1845
   81POPE   NH3  908  10.033   5.748   6.297 -0.0128 -0.1838  0.0539
   81POPE   PO4  909   9.668   5.624   6.273  0.1500  0.0372  0.0490
   81POPE   GL1  910   9.649   5.631   5.845  0.1535 -0.4328 -0.0243
   81POPE   GL2  911   9.859   5.566   5.699 -0.4160  0.0472  0.1148
   81POPE   C1A  912   9.397   5.865   5.494  0.0229  0.0666  0.2030
   81POPE   D2A  913   9.221   5.737   5.129 -0.1498 -0.0106  0.2838
   81POPE   C3A  914   9.428   5.805   4.667 -0.2001  0.2672  0.0318
   81POPE   C4A  915   9.544   5.685   4.311  0.3406 -0.0392 -0.2094
   81POPE   C1B  916   9.832   5.535   5.312 -0.1041  0.3215  0.0260
   81POPE   C2B  917   9.910   5.463   4.894  0.0769 -0.0669  0.0940
   81POPE   C3B  918   9.755   5.333   4.529  0.1050 -0.2357  0.0803
   81POPE   C4B  919   9.840   5.344   4.130  0.3457  0.2158 -0.0321
   82POSM   NC3  920  10.406   4.909   6.462 -0.0579 -0.0117  0.1558
   82POSM   PO4  921  10.324   5.361   6.286  0.0466  0.1335 -0.3025
   82POSM   AM1  922  10.353   5.550   5.969  0.2805 -0.1130 -0.1516
   82POSM   AM2  923  10.440   5.887   5.996  0.0950 -0.2113 -0.1948
   82POSM   T1A  924  10.297   5.646   5.576 -0.2850  0.0784  0.0541
   82POSM   C2A  925  10.334   5.347   5.141  0.2313 -0.3072  0.2324
   82POSM   C3A  926  10.610   5.160   4.914 -0.2974 -0.1035 -0.1554
   82POSM   C1B  927  10.530   6.071   5.653 -0.3536  0.1008  0.2551
   82POSM   D2B  928  10.449   6.319   5.349  0.1025 -0.2420  0.1317
   82POSM   C3B  929  10.638   6.218   4.973 -0.0185  0.0347 -0.1318
   82POSM   C4B  930  10.920   6.374   4.679  0.0707 -0.0622  0.0053
   83POSM   NC3  931   6.176   9.178   7.176  0.1083 -0.0027 -0.0499
   83POSM   PO4  932   6.104   9.399   6.789 -0.4332  0.2296  0.1823
   83POSM   AM1  933   5.929   9.536   6.385 -0.1588  0.3462 -0.1686
   83POSM   AM2  934   5.640   9.697   6.243  0.2471  0.2415 -0.4892
   83POSM   T1A  935   6.174   9.812   6.035  0.0950  0.2268  0.0413
   83POSM   C2A  936   6.177   9.754   5.528 -0.0053  0.0694  0.1968
   83POSM   C3A  937   6.231   9.384   5.345 -0.1152  0.1084  0.1124
   83POSM   C1B  938   5.770   9.563   5.866  0.0608  0.0770 -0.1174
   83POSM   D2B  939   5.770   9.225   5.508 -0.0497  0.0599 -0.0410
   83POSM   C3B  940   5.749   9.290   5.098  0.1071 -0.0246  0.0271
   83POSM   C4B  941   5.540   9.193   4.709  0.1327  0.2396 -0.0769
   84CHOL   ROH  942   6.904  12.296   5.405  0.0228 -0.3320  0.0527
   84CHOL    R1  943   6.901  12.337   5.125  0.0720 -0.1910  0.0716
   84CHOL    R2  944   7.132  12.333   4.972  0.0992 -0.1158  0.1028
   84CHOL    R3  945   6.995  12.147   4.829  0.1227 -0.0409 -0.0067
   84CHOL    R4  946   7.199  12.246   4.644  0.1918 -0.0235  0.0972
   84CHOL    R5  947   6.985  12.236   4.608  0.2133  0.0250  0.0220
   84CHOL    C1  948   7.110  12.019   4.320  0.2677  0.1005 -0.0089
   84CHOL    C2  949   6.813  11.801   4.098 -0.0648  0.2056 -0.1030
   85POSM   NC3  950   5.735   5.445   6.443 -0.0049  0.1062  0.2306
   85POSM   PO4  951   6.141   5.153   6.309  0.0959 -0.0235  0.2746
   85POSM   AM1  952   6.074   5.340   6.003  0.2660  0.1174  0.3923
   85POSM   AM2  953   5.976   5.586   6.046 -0.2228  0.1490  0.1623
   85POSM   T1A  954   6.103   5.496   5.528  0.0555 -0.0374  0.0271
   85POSM   C2A  955   6.129   5.716   5.125  0.3176 -0.1577  0.0485
   85POSM   C3A  956   6.351   6.089   4.914 -0.1477  0.1236  0.0876
   85POSM   C1B  957   6.430   5.675   5.839  0.0243 -0.2964 -0.1577
   85POSM   D2B  958   6.663   5.379   5.651  0.0473  0.1047  0.0918
   85POSM   C3B  959   6.539   5.272   5.269  0.0098  0.2050 -0.1760
   85POSM   C4B  960   6.586   4.899   4.943  0.2916 -0.0431  0.1403
   86POPS   CNO  961  13.406   7.114   6.306  0.3168 -0.0157 -0.0147
   86POPS   PO4  962  12.981   6.918   6.220 -0.2333 -0.0866  0.1568
   86POPS   GL1  963  13.321   6.727   6.019 -0.2367  0.2134  0.1242
   86POPS   GL2  964  13.577   6.789   5.972 -0.0518 -0.1897  0.0755
   86POPS   C1A  965  13.326   6.603   5.566 -0.1849  0.1783 -0.0452
   86POPS   D2A  966  13.125   6.445   5.220 -0.1621  0.1078  0.0587
   86POPS   C3A  967  13.017   6.462   4.690 -0.1085  0.2160  0.3121
   86POPS   C4A  968  12.877   6.480   4.183  0.1191 -0.0665 -0.0873
   86POPS   C1B  969  13.807   6.914   5.671  0.1498  0.2143 -0.2012
   86POPS   C2B  970  13.980   6.881   5.315  0.0361 -0.1350 -0.3742
   86POPS   C3B  971  14.173   6.972   4.778  0.2125  0.1251 -0.2181
   86POPS   C4B  972  14.164   7.110   4.429  0.1446  0.0374  0.1665
   87POPC   NC3  973   7.417   3.007   6.368 -0.0004  0.0540 -0.2523
   87POPC   PO4  974   7.354   3.482   6.287  0.0032 -0.2286  0.0034
   87POPC   GL1  975   7.582   3.709   6.035  0.3328  0.0103 -0.0365
   87POPC   GL2  976   7.404   3.959   5.995  0.1164 -0.1534  0.0330
   87POPC   C1A  977   7.891   3.805   5.740 -0.0214 -0.3356 -0.2731
   87POPC   D2A  978   7.840   3.743   5.254  0.0267 -0.0750 -0.1626
   87POPC   C3A  979   7.550   3.866   5.005  0.2951 -0.1882 -0.3883
   87POPC   C4A  980   7.221   3.912   4.699  0.1979 -0.0651 -0.0625
   87POPC   C1B  981   7.479   4.007   5.543  0.0525 -0.0161  0.0526
   87POPC   C2B  982   7.460   4.318   5.227 -0.3109 -0.1274 -0.2041
   87POPC   C3B  983   7.523   4.382   4.814  0.1008 -0.3979  0.1201
   87POPC   C4B  984   7.335   4.413   4.448 -0.4219 -0.1159 -0.1343
   88POPE   NH3  985   8.811  11.894   6.502  0.0185  0.1373  0.0185
   88POPE   PO4  986   8.829  12.337   6.519  0.0562  0.2105 -0.1991
   88POPE   GL1  987   8.920  12.227   6.111  0.1818 -0.0112  0.5065
   88POPE   GL2  988   8.908  11.948   5.989 -0.1154  0.2399 -0.0886
   88POPE   C1A  989   8.622  12.177   5.685 -0.5373 -0.0996  0.1877
   88POPE   D2A  990   8.337  12.497   5.517  0.0125  0.0283  0.0180
   88POPE   C3A  991   8.210  12.582   5.101 -0.0277  0.1487 -0.1143
   88POPE   C4A  992   7.963  12.541   4.661 -0.2028  0.3375  0.1455
   88POPE   C1B  993   8.947  11.780   5.589 -0.2343 -0.0204 -0.1211
   88POPE   C2B  994   8.950  11.852   5.167 -0.0605 -0.1440 -0.1970
   88POPE   C3B  995   9.005  11.781   4.709 -0.0069 -0.1508 -0.0540
   88POPE   C4B  996   9.258  11.634   4.321  0.1910  0.1911 -0.1908
   89POPE   NH3  997  11.765   6.599   6.362  0.1388 -0.0193 -0.0511
   89POPE   PO4  998  11.378   6.772   6.401 -0.2051 -0.1260 -0.1000
   89POPE   GL1  999  11.268   6.453   6.117  0.0615 -0.2318 -0.0358
   89POPE   GL2 1000  11.381   6.235   6.253  0.3835  0.1827 -0.0284
   89POPE   C1A 1001  11.284   6.291   5.718 -0.0861  0.1457  0.1853
   89POPE   D2A 1002  11.079   6.048   5.457 -0.0168 -0.1248  0.5086
   89POPE   C3A 1003  11.180   6.053   4.980  0.1972  0.0901 -0.0552
   89POPE   C4A 1004  11.172   5.970   4.547  0.1882 -0.3048 -0.2295
   89POPE   C1B 1005  11.665   6.030   5.959 -0.0315  0.2041  0.2533
   89POPE   C2B 1006  11.707   5.664   5.926  0.0766  0.2765 -0.2018
   89POPE   C3B 1007  11.430   5.458   5.697  0.0669 -0.0580  0.0640
   89POPE   C4B 1008  11.118   5.471   5.315 -0.0578 -0.2032 -0.1799
   90POPC   NC3 1009   9.487  12.172   6.175 -0.0040  0.1556 -0.2290
   90POPC   PO4 1010   9.921  12.140   6.174  0.0065  0.1289 -0.3415
   90POPC   GL1 1011   9.910  12.147   5.769 -0.1680 -0.0110  0.1080
   90POPC   GL2 1012   9.920  12.354   5.449 -0.3540  0.0908  0.0243
   90POPC   C1A 1013   9.965  11.858   5.402  0.0074 -0.0332  0.0504
   90POPC   D2A 1014  10.038  11.723   4.903 -0.0293 -0.1476 -0.2069
   90POPC   C3A 1015   9.825  12.049   4.833  0.1430 -0.0883  0.0118
   90POPC   C4A 1016   9.544  12.079   4.510  0.0293  0.0868 -0.0280
   90POPC   C1B 1017   9.788  12.553   5.107  0.1287 -0.1408 -0.0564
   90POPC   C2B 1018   9.569  12.686   4.610 -0.2222 -0.1249 -0.1952
   90POPC   C3B 1019   9.270  12.769   4.260 -0.0040  0.1864  0.0520
   90POPC   C4B 1020   9.386  12.990   3.861 -0.1650  0.1549 -0.1285
   91POPS   CNO 1021  10.996  11.459   6.435  0.0110 -0.1636  0.1415
   91POPS   PO4 1022  10.829  11.364   6.123  0.1441  0.2949  0.1565
   91POPS   GL1 1023  11.037  11.546   5.848 -0.0905  0.0239 -0.2671
   91POPS   GL2 1024  10.829  11.752   5.790  0.0371  0.1676 -0.2377
   91POPS   C1A 1025  11.108  11.660   5.381  0.3703  0.1664 -0.2392
   91POPS   D2A 1026  11.296  11.707   5.007 -0.2180 -0.1399  0.0890
   91POPS   C3A 1027  11.118  11.491   4.630  0.2272  0.2773 -0.1526
   91POPS   C4A 1028  10.817  11.594   4.322  0.0359 -0.0422 -0.0845
   91POPS   C1B 1029  10.615  11.606   5.566 -0.2411 -0.2069  0.2034
   91POPS   C2B 1030  10.373  11.592   5.254 -0.2598 -0.0611  0.3132
   91POPS   C3B 1031  10.335  11.245   5.030  0.0925 -0.2862 -0.2888
   91POPS   C4B 1032  10.302  10.974   4.802  0.0237  0.3217 -0.2529
   92POPC   NC3 1033   9.222   5.490   6.383 -0.0743  0.0995  0.0242
   92POPC   PO4 1034   8.941   5.168   6.441 -0.0568 -0.0725 -0.2685
   92POPC   GL1 1035   9.091   5.066   6.000 -0.1149 -0.3512 -0.2547
   92POPC   GL2 1036   9.259   5.307   5.946  0.0765  0.0932  0.1883
   92POPC   C1A 1037   8.902   5.291   5.639  0.1956  0.1406  0.0138
   92POPC   D2A 1038   9.000   5.136   5.211 -0.0573 -0.2033  0.3178
   92POPC   C3A 1039   8.999   5.423   4.762 -0.0513  0.1306  0.0364
   92POPC   C4A 1040   9.311   5.187   4.366 -0.0173 -0.1294  0.0153
   92POPC   C1B 1041   9.431   5.336   5.482 -0.0285  0.2145 -0.4207
   92POPC   C2B 1042   9.451   5.311   5.035  0.0900  0.0435 -0.1948
   92POPC   C3B 1043   9.459   4.937   4.756  0.0546 -0.1034  0.2246
   92POPC   C4B 1044   9.228   4.601   4.474  0.0957  0.1037  0.0285
   93POPC   NC3 1045   3.875   6.842   6.470 -0.2255 -0.2558  0.2833
   93POPC   PO4 1046   4.259   6.577   6.497  0.0954 -0.0932 -0.0252
   93POPC   GL1 1047   4.288   6.859   6.174 -0.0551 -0.0353  0.2881
   93POPC   GL2 1048   4.136   6.854   5.927  0.0019  0.2962  0.4233
   93POPC   C1A 1049   4.702   6.954   5.916  0.1057  0.1977  0.0852
   93POPC   D2A 1050   4.862   6.894   5.559  0.0587  0.2086  0.0940
   93POPC   C3A 1051   4.857   6.878   5.077  0.1920 -0.1239  0.2509
   93POPC   C4A 1052   4.803   6.880   4.602  0.0006 -0.1815 -0.1154
   93POPC   C1B 1053   3.975   7.198   5.615 -0.5151  0.1971  0.0698
   93POPC   C2B 1054   4.201   7.525   5.394 -0.0513  0.2775 -0.0156
   93POPC   C3B 1055   3.998   7.768   5.088 -0.0305  0.0778 -0.0088
   93POPC   C4B 1056   3.578   7.900   5.037  0.2135 -0.2484  0.1387
   94POPS   CNO 1057   4.597   6.198   6.740  0.0381  0.0439 -0.0827
   94POPS   PO4 1058   4.738   6.537   6.398 -0.1083 -0.0834 -0.0487
   94POPS   GL1 1059   4.913   6.389   6.014  0.0584  0.0991 -0.2235
   94POPS   GL2 1060   4.796   6.322   5.792  0.1787  0.2381  0.0728
   94POPS   C1A 1061   5.230   6.575   5.732  0.1071  0.1892  0.1330
   94POPS   D2A 1062   5.287   6.806   5.335  0.1093 -0.0208  0.0315
   94POPS   C3A 1063   5.623   6.775   5.068 -0.3521  0.0070  0.1651
   94POPS   C4A 1064   5.990   6.918   5.110  0.3260 -0.1028  0.0096
   94POPS   C1B 1065   4.677   6.433   5.412  0.0083 -0.1355  0.2043
   94POPS   C2B 1066   4.735   6.439   4.914 -0.2674  0.1513  0.1218
   94POPS   C3B 1067   4.628   6.188   4.555 -0.0911 -0.1510 -0.1537
   94POPS   C4B 1068   4.636   6.185   4.186  0.0694  0.2158 -0.0709
   95POPS   CNO 1069   6.549  12.476   6.371 -0.1811  0.2323  0.3122
   95POPS   PO4 1070   6.583  12.786   6.041 -0.0234  0.2640 -0.1813
   95POPS   GL1 1071   6.557  12.668   5.626 -0.0876 -0.0374 -0.2249
   95POPS   GL2 1072   6.407  12.412   5.512  0.0412  0.0116  0.0877
   95POPS   C1A 1073   6.772  12.802   5.219  0.2300  0.2896  0.0978
   95POPS   D2A 1074   6.837  12.679   4.723  0.0293  0.0218 -0.1480
   95POPS   C3A 1075   6.805  12.950   4.348 -0.0713 -0.0496 -0.0662
   95POPS   C4A 1076   6.675  13.379   4.502 -0.0286 -0.2790  0.3172
   95POPS   C1B 1077   6.367  12.506   5.051 -0.0158  0.1495  0.0755
   95POPS   C2B 1078   6.403  12.524   4.616  0.0031 -0.0691  0.0397
   95POPS   C3B 1079   6.617  12.312   4.180 -0.0368 -0.2956 -0.2892
   95POPS   C4B 1080   6.455  12.085   3.940 -0.2476 -0.1101  0.0925
   96CHOL   ROH 1081   4.747  10.167   5.916  0.0789 -0.0291 -0.0375
   96CHOL    R1 1082   4.832  10.008   5.698  0.0697 -0.0022 -0.0609
   96CHOL    R2 1083   4.726  10.034   5.444  0.0458  0.0154 -0.0483
   96CHOL    R3 1084   4.987  10.065   5.374  0.0369  0.0386 -0.0701
   96CHOL    R4 1085   4.852   9.987   5.126  0.0341 -0.0745 -0.0393
   96CHOL    R5 1086   5.027   9.891   5.214  0.0579 -0.0129 -0.0121
   96CHOL    C1 1087   5.169   9.988   4.874  0.0189 -0.1051 -0.0546
   96CHOL    C2 1088   5.310  10.011   4.620 -0.0316 -0.0738  0.2653
   97POPC   NC3 1089   9.004  12.826   6.423  0.2104  0.1409 -0.1111
   97POPC   PO4 1090   9.347  12.617   6.294 -0.1258 -0.0878 -0.1859
   97POPC   GL1 1091   9.291  12.562   5.949 -0.1101  0.0364  0.1131
   97POPC   GL2 1092   9.557  12.550   5.690 -0.0818  0.1644 -0.2132
   97POPC   C1A 1093   9.071  12.376   5.594  0.0965  0.0752 -0.2277
   97POPC   D2A 1094   8.767  12.373   5.134 -0.0346  0.0398  0.2330
   97POPC   C3A 1095   8.584  12.576   4.702  0.1494 -0.3504 -0.1147
   97POPC   C4A 1096   8.333  12.647   4.287 -0.0454  0.1826  0.0847
   97POPC   C1B 1097   9.284  12.681   5.257  0.1493  0.1630  0.1017
   97POPC   C2B 1098   9.408  12.931   4.964 -0.0579 -0.3550  0.0861
   97POPC   C3B 1099   9.405  13.170   4.628 -0.2110 -0.0751  0.2248
   97POPC   C4B 1100   9.212  13.258   4.370  0.2458  0.2195  0.1599
   98POPE   NH3 1101  10.731  11.834   6.275  0.0716 -0.1847 -0.0344
   98POPE   PO4 1102  10.673  12.292   6.378 -0.0076 -0.1860  0.3061
   98POPE   GL1 1103  10.858  12.251   6.025 -0.0461 -0.0969  0.0195
   98POPE   GL2 1104  10.830  12.588   5.752  0.2811  0.0069 -0.3017
   98POPE   C1A 1105  10.731  12.116   5.571  0.1359  0.0807 -0.2408
   98POPE   D2A 1106  10.408  12.145   5.322 -0.1323  0.1282 -0.1244
   98POPE   C3A 1107  10.364  12.159   4.876  0.1561 -0.5091  0.0299
   98POPE   C4A 1108  10.121  12.063   4.467 -0.0015  0.2684  0.1127
   98POPE   C1B 1109  10.839  12.485   5.301  0.3969 -0.2087 -0.3007
   98POPE   C2B 1110  10.870  12.361   4.858 -0.1372 -0.0391  0.1644
   98POPE   C3B 1111  11.049  12.240   4.532 -0.2858  0.2486  0.2853
   98POPE   C4B 1112  11.358  11.900   4.342  0.0102  0.1190 -0.2384
   99CHOL   ROH 1113   5.608   4.509   5.826  0.2635 -0.0343 -0.0880
   99CHOL    R1 1114   5.521   4.621   5.581  0.0442 -0.0247 -0.0089
   99CHOL    R2 1115   5.678   4.792   5.432 -0.1106  0.0315 -0.1160
   99CHOL    R3 1116   5.629   4.613   5.234 -0.2245  0.0405 -0.0952
   99CHOL    R4 1117   5.668   4.868   5.095  0.1338 -0.0387 -0.1409
   99CHOL    R5 1118   5.497   4.734   5.075 -0.0109  0.1535 -0.1875
   99CHOL    C1 1119   5.615   4.744   4.713  0.1693 -0.0712 -0.1360
   99CHOL    C2 1120   5.682   4.991   4.399 -0.3029 -0.2813 -0.3592
  100POPC   NC3 1121   4.330   9.228   6.149 -0.1556  0.1795 -0.0846
  100POPC   PO4 1122   4.449   8.696   6.296 -0.1355 -0.1642  0.0958
  100POPC   GL1 1123   4.698   8.642   5.941  0.1614  0.1815  0.0757
  100POPC   GL2 1124   4.837   8.389   5.922 -0.3404 -0.1351  0.3540
  100POPC   C1A 1125   5.052   8.671   5.596  0.1754 -0.1825 -0.1134
  100POPC   D2A 1126   5.370   8.926   5.352  0.0444  0.0971 -0.0615
  100POPC   C3A 1127   5.430   8.709   4.896  0.3200  0.0146 -0.0623
  100POPC   C4A 1128   5.372   8.668   4.473 -0.1138  0.2329  0.0220
  100POPC   C1B 1129   5.020   8.185   5.534 -0.2546 -0.2576  0.2941
  100POPC   C2B 1130   4.944   8.027   5.125  0.4509  0.0607  0.0959
  100POPC   C3B 1131   4.857   7.882   4.814 -0.2228 -0.2465 -0.0923
  100POPC   C4B 1132   4.641   7.939   4.478 -0.0835  0.0908 -0.1765
  101POPS   CNO 1133   4.276   5.842   6.823 -0.0481 -0.1703  0.1285
  101POPS   PO4 1134   4.380   5.899   6.408  0.0725 -0.3106 -0.3398
  101POPS   GL1 1135   4.601   5.854   5.986 -0.2727  0.0679  0.0732
  101POPS   GL2 1136   4.874   5.508   5.806  0.2634  0.0825  0.2140
  101POPS   C1A 1137   4.590   5.933   5.563  0.1430 -0.0964 -0.1324
  101POPS   D2A 1138   4.795   5.932   5.145 -0.1591 -0.2032  0.0256
  101POPS   C3A 1139   4.735   5.637   4.891 -0.0730 -0.2400  0.2936
  101POPS   C4A 1140   4.559   5.616   4.469  0.3798  0.1203 -0.3693
  101POPS   C1B 1141   4.799   5.471   5.421 -0.0883  0.1994  0.0918
  101POPS   C2B 1142   4.757   5.198   5.133 -0.0596  0.0271 -0.4944
  101POPS   C3B 1143   4.669   5.153   4.642 -0.2850 -0.0344 -0.0264
  101POPS   C4B 1144   5.021   5.414   4.564 -0.0045  0.1762 -0.0150
  102POPC   NC3 1145   6.540   4.976   6.490  0.0394  0.0078 -0.0039
  102POPC   PO4 1146   6.498   4.575   6.589  0.2210  0.0135 -0.0731
  102POPC   GL1 1147   6.533   4.450   6.151  0.1050 -0.0650  0.2267
  102POPC   GL2 1148   6.880   4.339   6.149  0.0865  0.0001  0.3956
  102POPC   C1A 1149   6.429   4.491   5.723  0.1458  0.2258  0.0362
  102POPC   D2A 1150   6.078   4.501   5.487  0.2443 -0.3374 -0.3362
  102POPC   C3A 1151   6.074   4.471   5.041 -0.3415  0.2364 -0.0135
  102POPC   C4A 1152   6.271   4.471   4.649 -0.2059 -0.0308  0.0449
  102POPC   C1B 1153   7.171   4.339   5.727 -0.1988  0.0914  0.1915
  102POPC   C2B 1154   7.148   4.680   5.315 -0.0464  0.2379  0.0707
  102POPC   C3B 1155   7.140   4.766   4.851 -0.1008  0.0063  0.3890
  102POPC   C4B 1156   7.105   4.946   4.395  0.0473 -0.0061  0.2559
  103POPC   NC3 1157  12.492   6.973   6.218  0.2270 -0.2361 -0.4926
  103POPC   PO4 1158  12.153   6.757   6.112 -0.0014  0.0052 -0.0670
  103POPC   GL1 1159  12.334   6.689   5.706  0.1319  0.1817  0.0017
  103POPC   GL2 1160  12.679   6.831   5.736  0.1176 -0.0784 -0.3581
  103POPC   C1A 1161  12.453   6.511   5.401 -0.2373 -0.0504 -0.2408
  103POPC   D2A 1162  12.543   6.282   5.065  0.2782 -0.0857 -0.1090
  103POPC   C3A 1163  12.504   6.539   4.730  0.0357 -0.4044 -0.3209
  103POPC   C4A 1164  12.770   6.856   4.538  0.1901  0.0500 -0.1830
  103POPC   C1B 1165  12.958   6.896   5.377  0.0872 -0.0542 -0.0008
  103POPC   C2B 1166  13.361   7.145   5.289 -0.0190  0.0425  0.1000
  103POPC   C3B 1167  13.675   7.170   4.968 -0.0599 -0.1557 -0.0118
  103POPC   C4B 1168  13.625   7.053   4.534 -0.3960  0.2354 -0.1375
  104POPC   NC3 1169   9.362   3.274   6.845 -0.2952 -0.1678  0.0801
  104POPC   PO4 1170   9.341   3.351   6.480  0.0797 -0.0376  0.0358
  104POPC   GL1 1171   9.308   3.332   5.947 -0.0369  0.1067 -0.0174
  104POPC   GL2 1172   9.590   3.468   5.860 -0.1597  0.1142 -0.0027
  104POPC   C1A 1173   9.043   3.228   5.592  0.1981  0.3136 -0.4159
  104POPC   D2A 1174   9.069   2.996   5.239 -0.1271  0.2203  0.1786
  104POPC   C3A 1175   8.943   3.248   4.864 -0.0502 -0.1195 -0.0397
  104POPC   C4A 1176   8.961   3.105   4.405  0.0968 -0.0010  0.0005
  104POPC   C1B 1177   9.558   3.318   5.455 -0.0041  0.0232 -0.0772
  104POPC   C2B 1178   9.459   3.245   5.175  0.2430  0.0894  0.1624
  104POPC   C3B 1179   9.407   3.096   4.742 -0.1262 -0.0462 -0.1611
  104POPC   C4B 1180   9.466   3.069   4.300  0.0871  0.0335  0.0982
  105POPC   NC3 1181  12.368   9.359   6.113 -0.1673  0.1755  0.2542
  105POPC   PO4 1182  12.532   8.945   6.177 -0.0174 -0.0804  0.0562
  105POPC   GL1 1183  12.545   8.928   5.807 -0.1872  0.1180  0.0891
  105POPC   GL2 1184  12.608   8.569   5.543  0.2196  0.1740  0.2231
  105POPC   C1A 1185  12.827   9.013   5.470 -0.1137  0.0386 -0.1490
  105POPC   D2A 1186  12.807   8.952   5.073  0.2079  0.2018  0.2576
  105POPC   C3A 1187  13.075   8.983   4.716  0.1510  0.1045 -0.1411
  105POPC   C4A 1188  13.414   8.921   4.453  0.2197 -0.2018  0.0773
  105POPC   C1B 1189  12.706   8.169   5.376 -0.1035  0.1233  0.0411
  105POPC   C2B 1190  12.633   7.955   5.023  0.0959 -0.3321 -0.0807
  105POPC   C3B 1191  12.683   7.607   4.667  0.4194  0.2178  0.0217
  105POPC   C4B 1192  12.586   7.635   4.090 -0.2731 -0.1509 -0.3397
  106POPE   NH3 1193  12.623   9.962   6.327  0.0377 -0.1352  0.0072
  106POPE   PO4 1194  12.798   9.645   6.255 -0.3535 -0.1157  0.2340
  106POPE   GL1 1195  12.529   9.788   5.860  0.0306 -0.0103  0.2314
  106POPE   GL2 1196  12.594   9.446   5.667  0.0307 -0.0271 -0.1357
  106POPE   C1A 1197  12.240   9.697   5.435 -0.0378 -0.1495  0.0433
  106POPE   D2A 1198  12.253   9.885   4.971  0.0111  0.0783 -0.0636
  106POPE   C3A 1199  12.552   9.809   4.635  0.1685  0.0482 -0.0221
  106POPE   C4A 1200  12.567   9.526   4.358  0.1676  0.0995  0.1896
  106POPE   C1B 1201  12.574   9.387   5.227  0.2690  0.0180  0.2749
  106POPE   C2B 1202  12.304   9.423   4.821 -0.0828  0.0162  0.0886
  106POPE   C3B 1203  12.118   9.782   4.474 -0.2296  0.2098  0.3294
  106POPE   C4B 1204  12.050   9.806   4.110  0.0160 -0.0025 -0.1401
  107CHOL   ROH 1205  12.040  11.824   5.753 -0.2473 -0.3560  0.1615
  107CHOL    R1 1206  12.092  11.603   5.584 -0.3418 -0.0604 -0.2737
  107CHOL    R2 1207  12.117  11.628   5.310  0.2972  0.5748 -0.1933
  107CHOL    R3 1208  12.354  11.502   5.353 -0.0341 -0.0082  0.0471
  107CHOL    R4 1209  12.310  11.481   5.063  0.4182  0.5205 -0.0666
  107CHOL    R5 1210  12.352  11.317   5.201 -0.1726  0.2140 -0.2298
  107CHOL    C1 1211  12.645  11.278   4.960  0.1778 -0.0584  0.2328
  107CHOL    C2 1212  12.949  11.259   4.708  0.2085 -0.3361 -0.0818
  108POPS   CNO 1213   8.587  13.671   6.378 -0.2724  0.0819  0.0002
  108POPS   PO4 1214   8.793  13.309   6.478  0.1369 -0.0121 -0.0789
  108POPS   GL1 1215   8.809  13.066   6.047  0.0218 -0.6663 -0.0628
  108POPS   GL2 1216   9.210  13.068   6.046  0.0950  0.1568 -0.3296
  108POPS   C1A 1217   8.742  12.752   5.767  0.1149 -0.0179  0.0332
  108POPS   D2A 1218   8.596  12.992   5.403  0.1464 -0.0995 -0.0526
  108POPS   C3A 1219   8.846  12.840   5.057  0.1711 -0.4139 -0.1066
  108POPS   C4A 1220   9.013  12.743   4.694  0.0613  0.1967  0.0241
  108POPS   C1B 1221   9.149  13.000   5.582  0.0414  0.1725  0.3145
  108POPS   C2B 1222   9.060  13.290   5.156  0.1457 -0.0265 -0.0869
  108POPS   C3B 1223   8.969  13.283   4.806  0.1359 -0.4452  0.1187
  108POPS   C4B 1224   8.722  13.082   4.376  0.2864  0.1646 -0.1614
  109POPS   CNO 1225   5.566  12.185   6.596 -0.3000 -0.1518 -0.0871
  109POPS   PO4 1226   5.466  11.798   6.368  0.1812  0.0869 -0.2508
  109POPS   GL1 1227   5.414  11.738   5.908 -0.1555  0.2145 -0.3543
  109POPS   GL2 1228   5.681  11.598   5.708  0.0497 -0.0260  0.2712
  109POPS   C1A 1229   5.243  11.937   5.521  0.2940 -0.1320 -0.2041
  109POPS   D2A 1230   5.403  12.130   5.151 -0.4453 -0.1036 -0.0592
  109POPS   C3A 1231   5.355  12.154   4.750 -0.2069 -0.2554  0.1842
  109POPS   C4A 1232   5.588  12.156   4.343 -0.1057  0.1312 -0.1473
  109POPS   C1B 1233   5.495  11.503   5.322 -0.0790  0.1522 -0.0614
  109POPS   C2B 1234   5.462  11.687   4.961 -0.0084 -0.0112  0.2197
  109POPS   C3B 1235   5.144  11.759   4.677  0.1947 -0.0785  0.1528
  109POPS   C4B 1236   4.979  11.914   4.316  0.1337  0.2367 -0.2002
  110POSM   NC3 1237  13.455   7.876   6.600 -0.1060 -0.3223 -0.1935
  110POSM   PO4 1238  13.531   7.753   6.350  0.0945  0.2410 -0.0458
  110POSM   AM1 1239  13.542   7.890   5.956 -0.0697 -0.3370 -0.0424
  110POSM   AM2 1240  13.772   8.122   5.830  0.1869 -0.0057 -0.1546
  110POSM   T1A 1241  13.517   7.630   5.585 -0.1949  0.1341 -0.0226
  110POSM   C2A 1242  13.568   7.615   5.194 -0.0866 -0.0309  0.1915
  110POSM   C3A 1243  13.338   7.540   4.761  0.4621  0.2764  0.3411
  110POSM   C1B 1244  13.982   8.077   5.436 -0.1335 -0.0279  0.2795
  110POSM   D2B 1245  13.956   7.873   5.027  0.0108 -0.2617 -0.0465
  110POSM   C3B 1246  14.054   7.997   4.558  0.2003 -0.0708 -0.0988
  110POSM   C4B 1247  13.899   7.842   4.180  0.2142 -0.2437  0.1449
  111POPE   NH3 1248   6.603  11.651   6.286 -0.0221 -0.1087  0.0743
  111POPE   PO4 1249   6.243  11.329   6.238  0.2499  0.0176 -0.0461
  111POPE   GL1 1250   6.088  11.057   5.955 -0.0196  0.2912  0.0111
  111POPE   GL2 1251   5.809  10.899   6.081  0.2036 -0.1625 -0.0419
  111POPE   C1A 1252   5.866  11.146   5.553  0.1420  0.0744 -0.0300
  111POPE   D2A 1253   5.695  11.073   5.206 -0.0250  0.1065  0.0407
  111POPE   C3A 1254   5.730  11.275   4.822 -0.0722 -0.1608  0.2439
  111POPE   C4A 1255   5.772  11.679   4.561 -0.2554  0.0427 -0.2152
  111POPE   C1B 1256   5.807  10.611   5.759 -0.0489  0.1807  0.0830
  111POPE   C2B 1257   5.810  10.609   5.315  0.2193 -0.2639  0.0780
  111POPE   C3B 1258   6.114  10.624   5.021 -0.1369 -0.0070 -0.1967
  111POPE   C4B 1259   6.409  10.306   4.815  0.1177  0.1441 -0.1039
  112CHOL   ROH 1260   7.742   4.295   5.808  0.0430 -0.1353 -0.1003
  112CHOL    R1 1261   7.929   4.355   5.604 -0.0115 -0.1472 -0.1559
  112CHOL    R2 1262   7.942   4.213   5.367 -0.1554 -0.0866 -0.2062
  112CHOL    R3 1263   7.916   4.460   5.256 -0.1093 -0.0437 -0.1202
  112CHOL    R4 1264   7.996   4.287   5.034 -0.1116  0.0333 -0.1722
  112CHOL    R5 1265   8.093   4.472   5.095 -0.0944 -0.0058 -0.0966
  112CHOL    C1 1266   8.003   4.562   4.736 -0.0428  0.1433 -0.0717
  112CHOL    C2 1267   8.088   4.849   4.558  0.0097  0.1377  0.2331
  113POPS   CNO 1268  11.104   4.882   6.641 -0.0277  0.0962 -0.2964
  113POPS   PO4 1269  10.877   4.701   6.392  0.1177 -0.1491 -0.0796
  113POPS   GL1 1270  11.120   5.006   6.153 -0.1727  0.0303  0.1175
  113POPS   GL2 1271  10.895   5.134   5.984  0.0114  0.0422 -0.2544
  113POPS   C1A 1272  11.361   5.034   5.806 -0.1465  0.0342  0.2261
  113POPS   D2A 1273  11.542   4.941   5.462 -0.2302  0.0659  0.2779
  113POPS   C3A 1274  11.696   5.378   5.269  0.1281 -0.1322 -0.2194
  113POPS   C4A 1275  11.501   5.836   5.346 -0.2381  0.0547  0.1550
  113POPS   C1B 1276  10.911   4.795   5.647  0.0645 -0.4264  0.1462
  113POPS   C2B 1277  11.011   4.917   5.229 -0.2187 -0.1310  0.0452
  113POPS   C3B 1278  11.290   5.180   4.928 -0.1337  0.2105 -0.2780
  113POPS   C4B 1279  11.483   5.594   4.788 -0.1153  0.0364  0.0079
  114POPE   NH3 1280   4.802  10.178   6.419  0.1790 -0.1537  0.0822
  114POPE   PO4 1281   4.414   9.891   6.459 -0.0231 -0.1491  0.1960
  114POPE   GL1 1282   4.498   9.718   6.060  0.1534 -0.2555 -0.1718
  114POPE   GL2 1283   4.280   9.974   5.899  0.2586  0.0116  0.0863
  114POPE   C1A 1284   4.365   9.533   5.678  0.0415 -0.0348 -0.0001
  114POPE   D2A 1285   4.244   8.997   5.671 -0.0531  0.1287  0.2519
  114POPE   C3A 1286   4.321   8.799   5.269  0.1975 -0.0787 -0.1167
  114POPE   C4A 1287   4.555   8.757   4.859  0.1091  0.1980 -0.1226
  114POPE   C1B 1288   4.285   9.956   5.503  0.0290 -0.3212 -0.4349
  114POPE   C2B 1289   4.349   9.757   5.090  0.1546 -0.0132 -0.0588
  114POPE   C3B 1290   4.365   9.758   4.783  0.0951  0.0768 -0.1377
  114POPE   C4B 1291   4.178   9.660   4.540 -0.4130 -0.0416 -0.0466
  115POPC   NC3 1292   5.547   4.642   6.311  0.1387 -0.0554  0.4734
  115POPC   PO4 1293   5.699   4.957   6.422  0.3473 -0.2127  0.1812
  115POPC   GL1 1294   5.702   4.974   6.008 -0.0595 -0.1902  0.0025
  115POPC   GL2 1295   5.978   4.879   5.812  0.1600 -0.3411  0.1164
  115POPC   C1A 1296   5.675   5.209   5.620 -0.1309 -0.2554  0.0059
  115POPC   D2A 1297   5.666   5.352   5.260 -0.1211 -0.2984  0.0896
  115POPC   C3A 1298   5.914   5.361   4.869 -0.2136 -0.2303 -0.0120
  115POPC   C4A 1299   6.065   5.353   4.481  0.1312  0.1516 -0.1397
  115POPC   C1B 1300   6.191   4.958   5.556 -0.0958 -0.0349 -0.0560
  115POPC   C2B 1301   6.124   5.039   5.186 -0.2935  0.1991 -0.2207
  115POPC   C3B 1302   6.061   4.868   4.800  0.0038  0.0813 -0.2242
  115POPC   C4B 1303   6.141   4.799   4.352 -0.1630 -0.2226 -0.1244
  116POPE   NH3 1304  11.522  10.848   6.434 -0.0312 -0.1332  0.0965
  116POPE   PO4 1305  11.866  10.975   6.162 -0.2028  0.1008 -0.1873
  116POPE   GL1 1306  11.902  10.943   5.800  0.0091 -0.0905  0.2849
  116POPE   GL2 1307  11.736  10.823   5.608 -0.2082 -0.1461  0.1834
  116POPE   C1A 1308  11.924  11.142   5.324  0.0852  0.1043  0.1835
  116POPE   D2A 1309  11.844  11.181   4.928 -0.0008 -0.2662  0.2528
  116POPE   C3A 1310  11.718  10.981   4.607 -0.2085 -0.1935  0.2972
  116POPE   C4A 1311  11.435  11.207   4.282  0.0074 -0.2701 -0.2359
  116POPE   C1B 1312  11.540  10.784   5.270  0.1657  0.1132  0.2593
  116POPE   C2B 1313  11.750  10.646   4.918 -0.0791  0.3871 -0.0047
  116POPE   C3B 1314  12.065  10.644   4.588  0.0457 -0.0697 -0.0962
  116POPE   C4B 1315  12.153  10.457   4.165 -0.1915  0.3047  0.0110
  117POSM   NC3 1316  11.299   6.420   6.720  0.0318 -0.1048 -0.1147
  117POSM   PO4 1317  10.977   6.316   6.673  0.0299 -0.2377 -0.1183
  117POSM   AM1 1318  10.832   6.195   6.325 -0.1369  0.3053  0.0744
  117POSM   AM2 1319  10.663   6.335   6.123  0.2764 -0.0995 -0.1074
  117POSM   T1A 1320  11.023   5.977   5.980  0.0427  0.1881 -0.0536
  117POSM   C2A 1321  10.935   5.631   5.704  0.1409 -0.1959  0.2066
  117POSM   C3A 1322  10.723   5.293   5.537 -0.1783 -0.1026  0.0222
  117POSM   C1B 1323  10.839   6.526   5.740  0.1000 -0.1666 -0.0927
  117POSM   D2B 1324  10.925   6.518   5.376  0.1298 -0.1012  0.0995
  117POSM   C3B 1325  11.210   6.762   5.254 -0.2790 -0.3166  0.2789
  117POSM   C4B 1326  11.317   7.177   5.453  0.4397 -0.1016 -0.2552
  118POPS   CNO 1327   9.814   5.186   6.045 -0.1097 -0.3231 -0.1523
  118POPS   PO4 1328   9.972   4.938   6.012 -0.1311  0.1051  0.1032
  118POPS   GL1 1329   9.930   5.040   5.594  0.0591  0.0535  0.0072
  118POPS   GL2 1330  10.200   5.148   5.601  0.0086 -0.0403 -0.0412
  118POPS   C1A 1331   9.913   4.984   5.133  0.0148  0.0354 -0.0528
  118POPS   D2A 1332  10.191   5.033   4.765  0.1615  0.1519 -0.0082
  118POPS   C3A 1333  10.358   5.420   4.597 -0.1024  0.1324 -0.0192
  118POPS   C4A 1334  10.485   5.862   4.672 -0.0767 -0.2485 -0.0809
  118POPS   C1B 1335  10.439   4.930   5.349 -0.1477 -0.2980  0.1988
  118POPS   C2B 1336  10.608   4.706   5.031  0.3140 -0.2007 -0.1889
  118POPS   C3B 1337  10.936   4.682   4.747 -0.0717 -0.2336 -0.1132
  118POPS   C4B 1338  11.088   4.621   4.331  0.1550  0.1967 -0.1150
  119POPS   CNO 1339   5.439  11.358   6.625  0.0440  0.2287  0.5363
  119POPS   PO4 1340   5.400  11.062   6.403 -0.1784 -0.1341  0.0496
  119POPS   GL1 1341   5.344  10.726   6.050 -0.0891  0.1694 -0.0264
  119POPS   GL2 1342   5.167  10.423   6.066 -0.2422  0.1347  0.2470
  119POPS   C1A 1343   5.421  10.810   5.623 -0.0468 -0.0063 -0.2166
  119POPS   D2A 1344   5.292  10.768   5.161 -0.0492  0.4502  0.1086
  119POPS   C3A 1345   5.537  10.834   4.737 -0.1479  0.2264 -0.0464
  119POPS   C4A 1346   5.947  10.681   4.567 -0.1046  0.0231 -0.1002
  119POPS   C1B 1347   5.379  10.267   5.656 -0.4433  0.0184 -0.3045
  119POPS   C2B 1348   5.495  10.231   5.202  0.2550  0.1909  0.2671
  119POPS   C3B 1349   5.750  10.325   4.832 -0.1378 -0.0492  0.1216
  119POPS   C4B 1350   5.801  10.193   4.365  0.0179  0.3010 -0.1626
  120POPS   CNO 1351  10.570  13.291   6.370 -0.2085  0.0515  0.2154
  120POPS   PO4 1352  10.945  13.256   6.397  0.1323  0.1570 -0.0456
  120POPS   GL1 1353  10.944  13.429   5.975  0.1015  0.0512  0.0249
  120POPS   GL2 1354  10.774  13.719   5.989  0.1664  0.1362 -0.1895
  120POPS   C1A 1355  10.833  13.445   5.513 -0.0540  0.2432  0.1650
  120POPS   D2A 1356  10.445  13.514   5.219 -0.2239 -0.1941 -0.0406
  120POPS   C3A 1357  10.339  13.321   4.761 -0.0961 -0.0240  0.1117
  120POPS   C4A 1358  10.265  13.131   4.326 -0.1995 -0.0698  0.0977
  120POPS   C1B 1359  10.424  13.546   5.827 -0.2575  0.3594 -0.0074
  120POPS   C2B 1360  10.216  13.314   5.610  0.1021  0.2286  0.0944
  120POPS   C3B 1361  10.081  13.129   5.184 -0.3973  0.0566  0.1310
  120POPS   C4B 1362   9.976  13.008   4.788 -0.0328  0.1763  0.0941
  121POPS   CNO 1363   6.225  12.337   5.978  0.3453  0.2522 -0.0371
  121POPS   PO4 1364   6.443  12.064   6.089 -0.1279  0.2128 -0.1452
  121POPS   GL1 1365   6.603  11.898   5.724 -0.1653 -0.1343 -0.2269
  121POPS   GL2 1366   6.966  11.853   5.818  0.0321 -0.2008 -0.0773
  121POPS   C1A 1367   6.559  12.002   5.237  0.1668 -0.0642  0.1357
  121POPS   D2A 1368   6.468  12.094   4.839 -0.0395  0.0378 -0.0342
  121POPS   C3A 1369   6.674  11.851   4.606  0.3151 -0.0988 -0.0121
  121POPS   C4A 1370   6.692  11.448   4.479  0.1301  0.1916  0.2137
  121POPS   C1B 1371   7.081  11.873   5.352  0.2662 -0.1638  0.1291
  121POPS   C2B 1372   6.975  11.657   4.982  0.1956 -0.1876 -0.2687
  121POPS   C3B 1373   7.206  11.622   4.628  0.2759  0.0358  0.0001
  121POPS   C4B 1374   7.512  11.398   4.424 -0.2103  0.3083  0.0346
  122POPE   NH3 1375   6.019   4.631   6.223 -0.0130  0.2316  0.2446
  122POPE   PO4 1376   6.115   4.176   6.327 -0.1260 -0.0002  0.1243
  122POPE   GL1 1377   6.093   4.120   5.882  0.0215 -0.2091  0.0898
  122POPE   GL2 1378   5.901   3.835   5.799 -0.1761  0.0225 -0.0883
  122POPE   C1A 1379   6.339   4.049   5.534 -0.0714  0.1984 -0.0345
  122POPE   D2A 1380   6.502   3.676   5.327 -0.0991  0.2892 -0.1069
  122POPE   C3A 1381   6.429   3.550   4.841  0.1094  0.2605  0.1338
  122POPE   C4A 1382   6.428   3.193   4.558  0.4470  0.2805  0.0807
  122POPE   C1B 1383   5.915   3.919   5.286  0.0896 -0.2445 -0.0373
  122POPE   C2B 1384   5.954   3.929   4.856 -0.3548 -0.3508 -0.3208
  122POPE   C3B 1385   5.936   3.694   4.562  0.1966  0.1496 -0.3175
  122POPE   C4B 1386   6.145   3.504   4.164 -0.2412  0.0799  0.1025
  123POPS   CNO 1387  14.561   7.120   6.507 -0.2911  0.2480  0.0653
  123POPS   PO4 1388  14.358   7.415   6.340 -0.1424  0.1479 -0.0700
  123POPS   GL1 1389  14.341   7.500   5.818  0.2925 -0.1456 -0.1374
  123POPS   GL2 1390  14.573   7.509   5.601 -0.1339  0.2020  0.0874
  123POPS   C1A 1391  14.068   7.454   5.431  0.3262 -0.0310  0.3133
  123POPS   D2A 1392  14.177   7.420   4.920 -0.0678  0.0684  0.2148
  123POPS   C3A 1393  13.858   7.542   4.641 -0.1508 -0.2290  0.4282
  123POPS   C4A 1394  13.515   7.585   4.240  0.1431  0.3618 -0.0220
  123POPS   C1B 1395  14.615   7.289   5.214 -0.2713 -0.0125 -0.1355
  123POPS   C2B 1396  14.545   6.787   5.068  0.2209  0.2044 -0.2711
  123POPS   C3B 1397  14.338   6.425   4.870  0.0826 -0.0830  0.3442
  123POPS   C4B 1398  14.294   6.189   4.520 -0.1285  0.3786 -0.1421
  124POPC   NC3 1399  10.688  12.873   6.696  0.1580 -0.2102  0.1583
  124POPC   PO4 1400  10.356  12.840   6.378  0.3722  0.0035  0.0417
  124POPC   GL1 1401  10.414  12.699   5.960 -0.0832  0.1310 -0.0555
  124POPC   GL2 1402  10.593  13.023   5.824  0.1684  0.0928 -0.0535
  124POPC   C1A 1403  10.308  12.645   5.536  0.0104  0.1099 -0.0492
  124POPC   D2A 1404  10.231  12.642   5.122 -0.1249 -0.2469  0.2115
  124POPC   C3A 1405  10.506  12.755   4.871 -0.0151  0.2473 -0.0190
  124POPC   C4A 1406  10.693  13.007   4.518  0.1779  0.1730 -0.1558
  124POPC   C1B 1407  10.624  12.963   5.314  0.2051 -0.1196 -0.3135
  124POPC   C2B 1408  10.915  12.977   4.969 -0.2064 -0.1951  0.0323
  124POPC   C3B 1409  11.110  12.754   4.622 -0.0343  0.1103  0.0507
  124POPC   C4B 1410  10.859  12.693   4.167  0.1707  0.0614  0.1447
  125CHOL   ROH 1411   7.280   3.287   5.813  0.2207 -0.1081  0.0983
  125CHOL    R1 1412   7.282   3.515   5.645  0.2829 -0.2152 -0.0479
  125CHOL    R2 1413   7.293   3.497   5.369 -0.0596 -0.4041 -0.0505
  125CHOL    R3 1414   7.071   3.653   5.383  0.1287 -0.1418  0.1131
  125CHOL    R4 1415   7.120   3.619   5.096 -0.3438 -0.5446  0.0620
  125CHOL    R5 1416   7.095   3.808   5.202  0.0276 -0.3803 -0.1180
  125CHOL    C1 1417   6.810   3.837   4.950 -0.3325 -0.3801  0.2811
  125CHOL    C2 1418   6.670   3.977   4.621 -0.0794 -0.0156  0.0220
  126POSM   NC3 1419   9.787  13.632   7.120  0.0735 -0.3069 -0.2158
  126POSM   PO4 1420   9.715  13.646   6.678  0.1415 -0.3103  0.4369
  126POSM   AM1 1421   9.757  13.322   6.201  0.1801 -0.0264  0.0463
  126POSM   AM2 1422   9.965  13.114   6.106  0.0600 -0.3286  0.1433
  126POSM   T1A 1423   9.551  13.426   5.804 -0.1154 -0.1890 -0.3816
  126POSM   C2A 1424   9.304  13.482   5.560 -0.0967 -0.0575  0.0039
  126POSM   C3A 1425   9.257  13.734   5.256 -0.0866 -0.1442 -0.4726
  126POSM   C1B 1426   9.924  12.955   5.729  0.0273  0.0284  0.0936
  126POSM   D2B 1427   9.623  13.002   5.403 -0.3087 -0.1010  0.0910
  126POSM   C3B 1428   9.612  13.350   5.126 -0.0371 -0.1879  0.1431
  126POSM   C4B 1429   9.563  13.677   4.869 -0.1052  0.1163  0.0667
  127CHOL   ROH 1430   4.285   6.447   5.677 -0.0713 -0.0808 -0.0413
  127CHOL    R1 1431   4.219   6.656   5.498  0.0748 -0.0125 -0.0142
  127CHOL    R2 1432   4.370   6.886   5.476  0.3335 -0.1970 -0.1077
  127CHOL    R3 1433   4.376   6.819   5.213  0.1062 -0.2095 -0.1138
  127CHOL    R4 1434   4.412   7.110   5.216  0.2072 -0.2098 -0.1420
  127CHOL    R5 1435   4.263   6.999   5.103  0.0753 -0.1675 -0.0271
  127CHOL    C1 1436   4.442   7.177   4.818 -0.0796 -0.2291 -0.1677
  127CHOL    C2 1437   4.420   7.568   4.858 -0.1224  0.1573 -0.4029
  128POPC   NC3 1438  12.434   6.034   6.417  0.0141 -0.3766 -0.2009
  128POPC   PO4 1439  12.268   6.456   6.453  0.0175  0.1356 -0.0127
  128POPC   GL1 1440  12.186   6.212   6.008  0.2071  0.4994  0.0105
  128POPC   GL2 1441  11.908   6.414   5.896  0.3184 -0.2037  0.0820
  128POPC   C1A 1442  12.417   6.138   5.754 -0.0200 -0.2065 -0.2247
  128POPC   D2A 1443  12.459   5.925   5.368  0.2180 -0.1244 -0.0213
  128POPC   C3A 1444  12.654   5.677   5.247 -0.1920  0.3185  0.0817
  128POPC   C4A 1445  12.721   5.449   4.941 -0.1802 -0.0347  0.2636
  128POPC   C1B 1446  11.966   6.260   5.508  0.1554 -0.0228  0.3439
  128POPC   C2B 1447  12.007   6.398   5.120 -0.0973  0.2404  0.5311
  128POPC   C3B 1448  11.883   6.532   4.666 -0.1782 -0.1350  0.0771
  128POPC   C4B 1449  11.874   6.953   4.661  0.2401 -0.1102  0.1881
  129POPC   NC3 1450   9.046   4.214   6.375 -0.1332 -0.2114 -0.0424
  129POPC   PO4 1451   9.041   4.641   6.318  0.0009 -0.0464  0.1164
  129POPC   GL1 1452   9.251   4.605   5.940  0.4868  0.1968  0.1653
  129POPC   GL2 1453   9.465   4.841   5.801 -0.2879 -0.1334  0.0933
  129POPC   C1A 1454   9.096   4.695   5.510  0.1890  0.2056  0.2774
  129POPC   D2A 1455   9.050   4.687   4.981  0.0396 -0.1222 -0.1256
  129POPC   C3A 1456   8.855   4.992   4.580 -0.4025 -0.1792 -0.0839
  129POPC   C4A 1457   8.449   5.358   4.456 -0.0192 -0.1769  0.2151
  129POPC   C1B 1458   9.545   4.786   5.413 -0.2017  0.0052  0.1813
  129POPC   C2B 1459   9.645   4.583   4.994 -0.0027 -0.0934  0.0207
  129POPC   C3B 1460   9.803   4.606   4.609  0.1187  0.0932  0.2513
  129POPC   C4B 1461   9.875   4.860   4.342  0.1063  0.1729  0.1142
  130POPE   NH3 1462   3.904   7.764   6.390  0.1011 -0.1143  0.1239
  130POPE   PO4 1463   4.359   7.818   6.384 -0.0841  0.1626 -0.1046
  130POPE   GL1 1464   4.256   7.787   5.974 -0.0442  0.0893  0.4215
  130POPE   GL2 1465   4.541   7.957   5.928 -0.0079  0.2247 -0.3137
  130POPE   C1A 1466   4.111   7.993   5.537 -0.1328 -0.0825 -0.0768
  130POPE   D2A 1467   4.015   8.243   5.197 -0.1747  0.1350 -0.0272
  130POPE   C3A 1468   3.658   8.503   5.115  0.1665  0.6654  0.2864
  130POPE   C4A 1469   3.262   8.690   5.072  0.0243 -0.3968  0.2565
  130POPE   C1B 1470   4.613   7.917   5.589 -0.0511 -0.0041  0.0091
  130POPE   C2B 1471   4.456   7.998   5.183  0.1052 -0.0254  0.0803
  130POPE   C3B 1472   4.157   8.050   4.701  0.2468 -0.3579 -0.0221
  130POPE   C4B 1473   3.735   8.076   4.618 -0.0844 -0.1994  0.2226
  131POSM   NC3 1474   3.939   6.147   6.501 -0.0912 -0.1255 -0.1890
  131POSM   PO4 1475   3.915   5.709   6.373  0.3182  0.1748 -0.0840
  131POSM   AM1 1476   4.151   5.634   5.989  0.1178 -0.2827 -0.5693
  131POSM   AM2 1477   4.109   5.916   5.877  0.0878 -0.2213 -0.1687
  131POSM   T1A 1478   4.330   5.478   5.706  0.0344  0.2310 -0.2695
  131POSM   C2A 1479   4.306   5.550   5.353  0.4161  0.1735  0.5225
  131POSM   C3A 1480   4.232   5.632   4.939 -0.0192  0.1014  0.0046
  131POSM   C1B 1481   4.124   6.016   5.521 -0.1079  0.0396  0.5373
  131POSM   D2B 1482   4.363   6.126   5.216  0.0301  0.3474 -0.0263
  131POSM   C3B 1483   4.181   6.134   4.756 -0.0015  0.2234 -0.2142
  131POSM   C4B 1484   4.051   6.158   4.360  0.2149  0.0699  0.0715
  132POPC   NC3 1485  12.078  11.097   6.742 -0.0881 -0.3743 -0.3128
  132POPC   PO4 1486  12.145  11.540   6.597 -0.1306  0.2641 -0.2258
  132POPC   GL1 1487  12.238  11.298   6.139 -0.0271 -0.0083  0.1390
  132POPC   GL2 1488  12.024  11.436   6.038  0.0706 -0.2836 -0.3378
  132POPC   C1A 1489  12.319  11.148   5.680 -0.1479 -0.1309 -0.0271
  132POPC   D2A 1490  12.238  10.806   5.360  0.2240 -0.2674 -0.4215
  132POPC   C3A 1491  12.222  10.861   4.955 -0.3099  0.0243 -0.0056
  132POPC   C4A 1492  12.243  11.120   4.571  0.0571 -0.1261  0.0068
  132POPC   C1B 1493  11.599  11.449   5.692  0.0022  0.2957 -0.1785
  132POPC   C2B 1494  11.505  11.394   5.278 -0.0749  0.0827  0.0058
  132POPC   C3B 1495  11.348  11.143   4.970  0.3178 -0.1693  0.0349
  132POPC   C4B 1496  11.176  10.868   4.699  0.0180  0.1009 -0.0560
  133POPE   NH3 1497   6.146  12.743   6.323  0.0466  0.0090  0.1053
  133POPE   PO4 1498   6.235  13.103   6.184  0.1146  0.2133 -0.1710
  133POPE   GL1 1499   6.426  13.158   5.741 -0.4145 -0.2359  0.0845
  133POPE   GL2 1500   6.812  13.152   5.715  0.1737  0.2920 -0.2810
  133POPE   C1A 1501   6.499  13.217   5.270  0.1821 -0.2039 -0.0431
  133POPE   D2A 1502   6.449  13.451   4.895 -0.2172  0.2236  0.1456
  133POPE   C3A 1503   6.599  13.811   4.725 -0.1636 -0.0688  0.1215
  133POPE   C4A 1504   6.406  14.222   4.749  0.0429  0.0713 -0.0183
  133POPE   C1B 1505   7.109  13.032   5.401 -0.1222 -0.2382  0.0467
  133POPE   C2B 1506   6.952  13.185   4.947 -0.0457 -0.1066  0.0063
  133POPE   C3B 1507   7.254  13.237   4.526 -0.1256  0.0063 -0.1399
  133POPE   C4B 1508   7.190  13.225   4.156 -0.3169  0.1581  0.4367
  134POPE   NH3 1509   3.857  10.732   6.534  0.2000 -0.0327 -0.1618
  134POPE   PO4 1510   4.089  10.884   6.244  0.1417 -0.2099  0.1145
  134POPE   GL1 1511   4.082  10.753   5.846  0.1240 -0.2987  0.0124
  134POPE   GL2 1512   4.369  10.520   5.793  0.1640 -0.1401 -0.0059
  134POPE   C1A 1513   4.126  10.834   5.417  0.2503  0.0371  0.2106
  134POPE   D2A 1514   4.013  10.827   5.026 -0.2889  0.1129 -0.2587
  134POPE   C3A 1515   3.689  11.000   4.824 -0.2324  0.4015 -0.1505
  134POPE   C4A 1516   3.343  10.903   4.537 -0.0024  0.1863  0.2345
  134POPE   C1B 1517   4.447  10.383   5.348 -0.0435  0.1522 -0.2652
  134POPE   C2B 1518   4.463  10.224   4.939 -0.0274 -0.1189 -0.1329
  134POPE   C3B 1519   4.762  10.074   4.601 -0.1655 -0.0592 -0.1142
  134POPE   C4B 1520   4.823   9.672   4.568  0.2184  0.0520  0.2439
  135POPS   CNO 1521  11.006  11.992   6.674  0.2041  0.1200 -0.2224
  135POPS   PO4 1522  11.202  11.957   6.194 -0.0687  0.1760  0.1155
  135POPS   GL1 1523  11.252  12.000   5.718  0.1399 -0.0057 -0.0084
  135POPS   GL2 1524  11.218  12.310   5.545  0.0396  0.3311 -0.2106
  135POPS   C1A 1525  11.595  11.889   5.466  0.0370 -0.2969  0.1609
  135POPS   D2A 1526  11.781  11.828   5.018 -0.1143 -0.0702  0.3004
  135POPS   C3A 1527  11.693  12.101   4.612  0.0227 -0.1425 -0.0932
  135POPS   C4A 1528  11.461  12.478   4.441 -0.0019 -0.0571 -0.1275
  135POPS   C1B 1529  11.109  12.094   5.233 -0.0033  0.3224  0.1621
  135POPS   C2B 1530  10.769  11.862   5.124 -0.3707  0.0114  0.2360
  135POPS   C3B 1531  10.592  11.740   4.689  0.1252 -0.1195 -0.0339
  135POPS   C4B 1532  10.299  11.384   4.470  0.2425  0.1576 -0.1952
  136POPC   NC3 1533   4.673   4.982   6.114  0.1498 -0.2469 -0.1112
  136POPC   PO4 1534   5.022   4.624   6.357 -0.2421  0.2718  0.2126
  136POPC   GL1 1535   5.046   4.684   5.877 -0.0656 -0.1590  0.3131
  136POPC   GL2 1536   5.260   5.040   5.719 -0.0920 -0.1093 -0.1649
  136POPC   C1A 1537   5.060   4.688   5.408  0.0836 -0.1422 -0.0362
  136POPC   D2A 1538   5.136   4.391   5.010 -0.1110 -0.0238 -0.2238
  136POPC   C3A 1539   5.022   4.434   4.587 -0.3664  0.2563 -0.0951
  136POPC   C4A 1540   4.928   4.145   4.340 -0.1156  0.1775 -0.0821
  136POPC   C1B 1541   5.207   5.118   5.253 -0.2773 -0.2468 -0.0888
  136POPC   C2B 1542   5.375   5.204   4.792 -0.2428  0.2576  0.0084
  136POPC   C3B 1543   5.587   5.542   4.494 -0.2246 -0.0835  0.0607
  136POPC   C4B 1544   5.437   5.786   4.241  0.1243  0.2301  0.1606
  137CHOL   ROH 1545   8.237  13.982   5.656  0.0066 -0.1894 -0.0655
  137CHOL    R1 1546   8.360  13.909   5.411  0.0954 -0.0046 -0.0770
  137CHOL    R2 1547   8.216  13.815   5.195  0.2088 -0.1813 -0.0796
  137CHOL    R3 1548   8.343  14.018   5.064 -0.0670  0.0043 -0.0672
  137CHOL    R4 1549   8.230  13.849   4.851  0.3163 -0.2422 -0.0817
  137CHOL    R5 1550   8.438  13.912   4.871  0.2054  0.1155  0.0034
  137CHOL    C1 1551   8.356  14.058   4.528  0.1200 -0.1036 -0.0712
  137CHOL    C2 1552   7.993  13.823   4.257  0.1613 -0.0478  0.1426
  138POPC   NC3 1553   3.132   9.623   6.443  0.1566 -0.1312  0.1732
  138POPC   PO4 1554   3.190   9.163   6.352  0.0249  0.0291  0.1218
  138POPC   GL1 1555   3.404   8.917   5.998  0.0243 -0.0731 -0.0338
  138POPC   GL2 1556   3.478   8.620   6.085 -0.3096 -0.0713 -0.3053
  138POPC   C1A 1557   3.614   8.976   5.587 -0.0887  0.0802 -0.1277
  138POPC   D2A 1558   3.599   9.025   5.160 -0.0535 -0.0322 -0.0731
  138POPC   C3A 1559   3.910   8.831   4.894 -0.0249 -0.1221 -0.0454
  138POPC   C4A 1560   4.022   8.516   4.699  0.1601  0.2336 -0.0925
  138POPC   C1B 1561   3.819   8.477   5.754  0.1937 -0.0065  0.2487
  138POPC   C2B 1562   4.318   8.448   5.659 -0.0622 -0.0474  0.1003
  138POPC   C3B 1563   4.634   8.411   5.352 -0.2163 -0.1490  0.1646
  138POPC   C4B 1564   4.973   8.568   5.149  0.2281  0.2373 -0.2021
  139POSM   NC3 1565   5.660   3.384   6.612 -0.0183 -0.0605  0.0761
  139POSM   PO4 1566   6.088   3.373   6.648  0.1397 -0.0058 -0.1860
  139POSM   AM1 1567   6.193   3.080   6.312  0.1137 -0.0184 -0.0120
  139POSM   AM2 1568   5.996   3.131   6.191  0.0611  0.0329  0.0161
  139POSM   T1A 1569   6.413   2.990   5.840  0.2301 -0.2533  0.0106
  139POSM   C2A 1570   6.335   3.098   5.445  0.1536 -0.0270 -0.5030
  139POSM   C3A 1571   6.307   3.112   5.015  0.0416 -0.0783 -0.2184
  139POSM   C1B 1572   5.862   3.285   5.778  0.0340 -0.1164  0.2486
  139POSM   D2B 1573   6.008   3.460   5.432  0.0413 -0.0681  0.0808
  139POSM   C3B 1574   5.889   3.367   4.988 -0.0224  0.1253 -0.0904
  139POSM   C4B 1575   5.890   3.104   4.551  0.5306 -0.0484 -0.1918
  140CHOL   ROH 1576   3.837   5.202   6.010 -0.1249 -0.0721 -0.0025
  140CHOL    R1 1577   3.854   5.338   5.762  0.0087 -0.0418  0.0223
  140CHOL    R2 1578   3.948   5.216   5.532 -0.0972 -0.0898  0.0016
  140CHOL    R3 1579   3.711   5.300   5.429 -0.0191  0.1511  0.0115
  140CHOL    R4 1580   3.895   5.299   5.201 -0.0075  0.0634  0.0243
  140CHOL    R5 1581   3.771   5.466   5.267  0.1344  0.1504  0.0685
  140CHOL    C1 1582   3.641   5.425   4.911  0.1182  0.3788  0.0468
  140CHOL    C2 1583   3.526   5.467   4.648 -0.0649  0.0838 -0.0160
  141POPC   NC3 1584   6.933   3.309   6.912  0.1606  0.0363 -0.2193
  141POPC   PO4 1585   6.934   3.658   6.629  0.2948 -0.1068  0.1745
  141POPC   GL1 1586   6.926   3.792   6.220  0.0532 -0.0013  0.0441
  141POPC   GL2 1587   6.542   3.958   5.981  0.4154  0.0831  0.0016
  141POPC   C1A 1588   6.844   3.606   5.809 -0.1647  0.0971  0.1460
  141POPC   D2A 1589   6.826   3.193   5.586 -0.0513 -0.0133 -0.1143
  141POPC   C3A 1590   6.895   3.178   5.136  0.2259 -0.1602  0.1382
  141POPC   C4A 1591   6.926   3.407   4.714 -0.1569  0.0907 -0.1856
  141POPC   C1B 1592   6.799   4.041   5.559  0.1368  0.3120 -0.0019
  141POPC   C2B 1593   6.889   4.267   5.253 -0.0693 -0.0239  0.3454
  141POPC   C3B 1594   6.952   4.295   4.840  0.0388 -0.2252  0.1088
  141POPC   C4B 1595   6.777   4.602   4.542 -0.1294 -0.0556 -0.2005
  142POPC   NC3 1596  14.047   9.121   6.445 -0.3881  0.2480 -0.1530
  142POPC   PO4 1597  13.548   9.174   6.468  0.2061  0.2027  0.0972
  142POPC   GL1 1598  13.316   9.309   6.093  0.1777 -0.0223  0.1573
  142POPC   GL2 1599  13.033   9.083   6.120 -0.0613 -0.0460 -0.0818
  142POPC   C1A 1600  13.121   9.467   5.664 -0.1229 -0.0793 -0.2190
  142POPC   D2A 1601  13.043   9.329   5.123 -0.0088  0.0882 -0.3402
  142POPC   C3A 1602  12.809   9.403   4.820  0.1793 -0.3551  0.0472
  142POPC   C4A 1603  12.589   9.098   4.595  0.0531  0.2698  0.1931
  142POPC   C1B 1604  13.170   8.894   5.831 -0.0838  0.2140 -0.0349
  142POPC   C2B 1605  13.065   8.612   5.509 -0.1484 -0.0813 -0.2580
  142POPC   C3B 1606  13.036   8.391   5.079  0.3175  0.0801 -0.3155
  142POPC   C4B 1607  12.936   8.104   4.703 -0.1637  0.0970  0.1362
  143CHOL   ROH 1608  13.927   9.245   5.954  0.1101  0.0361 -0.0269
  143CHOL    R1 1609  13.751   9.074   5.813  0.1393 -0.0145 -0.0021
  143CHOL    R2 1610  13.536   9.170   5.668  0.0534 -0.0809  0.0835
  143CHOL    R3 1611  13.650   9.027   5.467  0.0504  0.0039  0.0206
  143CHOL    R4 1612  13.364   9.033   5.401  0.0213 -0.1168  0.1220
  143CHOL    R5 1613  13.490   8.856   5.417  0.1105 -0.0630  0.0501
  143CHOL    C1 1614  13.371   8.819   5.057 -0.0002 -0.0581  0.0854
  143CHOL    C2 1615  13.311   8.482   4.713  0.1878  0.0066  0.4319
  144POPC   NC3 1616  13.416   6.662   6.509  0.1507  0.2068 -0.2674
  144POPC   PO4 1617  13.822   6.717   6.400  0.3189  0.4989  0.1326
  144POPC   GL1 1618  13.979   6.497   6.037 -0.0400 -0.0760 -0.0148
  144POPC   GL2 1619  14.244   6.544   5.844  0.1177 -0.0986  0.2849
  144POPC   C1A 1620  13.800   6.375   5.623 -0.0732 -0.0891  0.1096
  144POPC   D2A 1621  13.737   6.480   5.116 -0.1692 -0.1883  0.0826
  144POPC   C3A 1622  13.388   6.714   4.859 -0.0054 -0.2566 -0.1174
  144POPC   C4A 1623  13.154   7.070   4.762  0.1970  0.3918 -0.0658
  144POPC   C1B 1624  14.281   6.471   5.439 -0.1208  0.1571 -0.0555
  144POPC   C2B 1625  14.055   6.159   5.225  0.1368  0.2940  0.2586
  144POPC   C3B 1626  14.136   5.798   4.902  0.0473 -0.2879  0.0298
  144POPC   C4B 1627  13.973   5.491   4.743  0.0429 -0.1688  0.0113
  145POPC   NC3 1628   8.461   3.350   6.383  0.2795  0.2151  0.2743
  145POPC   PO4 1629   8.180   3.651   6.364 -0.1335  0.2622 -0.2311
  145POPC   GL1 1630   8.187   3.494   5.911 -0.0373 -0.0573  0.0332
  145POPC   GL2 1631   7.941   3.277   5.903  0.1574  0.0237 -0.2206
  145POPC   C1A 1632   8.274   3.391   5.505  0.1764 -0.1938  0.0907
  145POPC   D2A 1633   8.282   3.378   5.078  0.1032  0.1157 -0.0245
  145POPC   C3A 1634   8.059   3.670   4.824  0.1248 -0.2483  0.2109
  145POPC   C4A 1635   7.883   4.128   4.595  0.1439 -0.0702 -0.0878
  145POPC   C1B 1636   7.776   3.221   5.451  0.0376 -0.1557  0.0715
  145POPC   C2B 1637   7.572   3.297   5.027 -0.1478 -0.2644 -0.0562
  145POPC   C3B 1638   7.565   3.495   4.663  0.4994 -0.0872 -0.0417
  145POPC   C4B 1639   7.210   3.593   4.302 -0.0873 -0.0001 -0.2843
  146POSM   NC3 1640  13.467  10.004   6.626  0.2512 -0.0805  0.3787
  146POSM   PO4 1641  13.059   9.986   6.584 -0.0073  0.3639  0.1790
  146POSM   AM1 1642  12.995  10.262   6.196 -0.0716 -0.1072  0.1370
  146POSM   AM2 1643  12.867  10.138   5.839 -0.1087  0.0466 -0.0260
  146POSM   T1A 1644  13.070  10.650   5.842  0.1972 -0.3436 -0.4268
  146POSM   C2A 1645  13.292  10.732   5.641  0.0164  0.3075 -0.0986
  146POSM   C3A 1646  13.715  10.514   5.639  0.0155 -0.1150  0.1465
  146POSM   C1B 1647  12.873   9.866   5.462 -0.1254 -0.2130 -0.0907
  146POSM   D2B 1648  12.756   9.824   5.104  0.1173  0.1227  0.3472
  146POSM   C3B 1649  13.079   9.804   4.765 -0.3426 -0.1206 -0.1463
  146POSM   C4B 1650  13.057   9.812   4.319 -0.2172  0.0120 -0.1504
  147POPE   NH3 1651   5.429  12.639   6.329 -0.0819  0.0529  0.1655
  147POPE   PO4 1652   5.661  12.368   6.123 -0.0166 -0.5243 -0.4236
  147POPE   GL1 1653   5.895  12.311   5.661 -0.3472  0.1339  0.1485
  147POPE   GL2 1654   5.700  12.048   5.534 -0.1310 -0.1018 -0.0692
  147POPE   C1A 1655   5.957  12.326   5.216  0.1667  0.2526 -0.0208
  147POPE   D2A 1656   5.834  12.578   4.853 -0.3204 -0.1252  0.3014
  147POPE   C3A 1657   5.964  12.638   4.414 -0.0601  0.1028  0.1621
  147POPE   C4A 1658   6.169  12.474   4.122 -0.0211 -0.2001 -0.0779
  147POPE   C1B 1659   5.411  12.415   5.557 -0.0545 -0.0314  0.0287
  147POPE   C2B 1660   5.498  12.654   5.194  0.1832  0.0859  0.0356
  147POPE   C3B 1661   5.344  12.635   4.774 -0.0145 -0.1999 -0.0493
  147POPE   C4B 1662   5.136  12.495   4.438 -0.1342 -0.1705 -0.1532
  148CHOL   ROH 1663  12.458   5.162   5.828  0.1034 -0.1302 -0.0552
  148CHOL    R1 1664  12.477   5.311   5.588  0.2338 -0.0945 -0.0236
  148CHOL    R2 1665  12.463   5.193   5.338  0.2291 -0.0416 -0.0491
  148CHOL    R3 1666  12.265   5.375   5.300  0.3302  0.0681 -0.0595
  148CHOL    R4 1667  12.271   5.218   5.052  0.2606  0.0727 -0.0610
  148CHOL    R5 1668  12.283   5.435   5.069  0.3777  0.0648 -0.0559
  148CHOL    C1 1669  11.972   5.403   4.850  0.3738  0.2422 -0.0777
  148CHOL    C2 1670  11.948   5.660   4.587  0.0669  0.1648 -0.3498
  149POPC   NC3 1671   4.671  10.725   6.585  0.2591  0.3227 -0.1194
  149POPC   PO4 1672   4.714  10.610   6.172 -0.3411 -0.0398 -0.0182
  149POPC   GL1 1673   4.837  10.666   5.814  0.3124 -0.0593  0.5787
  149POPC   GL2 1674   4.948  10.997   5.776  0.0802  0.0417 -0.0371
  149POPC   C1A 1675   4.991  10.564   5.458  0.0089  0.1401 -0.1327
  149POPC   D2A 1676   4.938  10.443   5.036 -0.0948  0.2084  0.1773
  149POPC   C3A 1677   5.231  10.480   4.695 -0.0651  0.1242  0.0662
  149POPC   C4A 1678   5.521  10.625   4.251  0.1834 -0.2191 -0.4017
  149POPC   C1B 1679   5.141  11.168   5.427 -0.0473 -0.2716 -0.1531
  149POPC   C2B 1680   5.249  11.227   4.970 -0.0576  0.2782  0.8121
  149POPC   C3B 1681   5.327  11.303   4.543 -0.0867  0.1989 -0.4049
  149POPC   C4B 1682   5.207  11.400   4.178 -0.1761 -0.2379 -0.0586
  150POPE   NH3 1683   9.955   4.097   5.967 -0.3582  0.0690 -0.5584
  150POPE   PO4 1684  10.152   4.337   6.219 -0.2308  0.2169 -0.2542
  150POPE   GL1 1685  10.095   4.543   5.753 -0.0030 -0.1237  0.1284
  150POPE   GL2 1686  10.365   4.284   5.603  0.0999 -0.3496  0.0505
  150POPE   C1A 1687  10.099   4.569   5.299 -0.0124 -0.0962 -0.2391
  150POPE   D2A 1688  10.166   4.504   4.890 -0.1323  0.1370 -0.2380
  150POPE   C3A 1689  10.370   4.554   4.521 -0.0086  0.3541 -0.0807
  150POPE   C4A 1690  10.237   4.554   4.081 -0.1039 -0.0270 -0.0344
  150POPE   C1B 1691  10.676   4.217   5.227  0.1523  0.0424 -0.0503
  150POPE   C2B 1692  10.994   4.180   4.930  0.3321 -0.1891 -0.0192
  150POPE   C3B 1693  11.409   4.210   4.624  0.2223 -0.0844 -0.4775
  150POPE   C4B 1694  11.760   4.022   4.351 -0.0613 -0.0704  0.0759
  151CHOL   ROH 1695   6.178  11.547   5.801 -0.0099  0.1072  0.0629
  151CHOL    R1 1696   6.224  11.630   5.534 -0.0220 -0.2503 -0.0539
  151CHOL    R2 1697   6.052  11.566   5.327 -0.3790 -0.0012  0.1575
  151CHOL    R3 1698   6.051  11.835   5.288  0.2862 -0.0143 -0.0835
  151CHOL    R4 1699   5.948  11.723   5.038 -0.5883 -0.0054  0.2286
  151CHOL    R5 1700   6.114  11.862   5.059 -0.1295 -0.4260 -0.2673
  151CHOL    C1 1701   5.886  12.068   4.833 -0.0857 -0.0202  0.0437
  151CHOL    C2 1702   6.101  12.097   4.494  0.2100 -0.1039 -0.4485
  152POSM   NC3 1703  13.111  11.743   6.653 -0.2064  0.1723 -0.0675
  152POSM   PO4 1704  12.651  11.684   6.497 -0.0275  0.2054  0.3727
  152POSM   AM1 1705  12.806  11.876   6.142  0.1124  0.2363 -0.0152
  152POSM   AM2 1706  13.009  11.534   6.188  0.1387 -0.2592  0.2360
  152POSM   T1A 1707  12.941  11.981   5.764  0.0055 -0.1836 -0.0696
  152POSM   C2A 1708  12.964  12.193   5.414 -0.1532 -0.0986  0.0375
  152POSM   C3A 1709  13.201  12.149   5.012 -0.0066 -0.1745 -0.0841
  152POSM   C1B 1710  12.598  11.607   5.824 -0.0061  0.3369  0.0071
  152POSM   D2B 1711  12.468  11.952   5.506  0.1401 -0.0251  0.1673
  152POSM   C3B 1712  12.691  11.814   5.166 -0.2150 -0.3076  0.1515
  152POSM   C4B 1713  12.588  11.738   4.735 -0.0245  0.0188 -0.0531
  153POPE   NH3 1714  13.559   8.264   6.291 -0.1659 -0.1745 -0.0174
  153POPE   PO4 1715  14.007   8.265   6.295 -0.0651 -0.0266 -0.0663
  153POPE   GL1 1716  14.279   8.220   5.917 -0.0327 -0.1220  0.1626
  153POPE   GL2 1717  14.445   7.999   5.664 -0.0495 -0.3105 -0.0708
  153POPE   C1A 1718  14.458   8.467   5.588 -0.3175 -0.0051 -0.0544
  153POPE   D2A 1719  14.586   8.347   5.077 -0.4753 -0.0603 -0.0676
  153POPE   C3A 1720  14.170   8.353   4.925 -0.2293  0.1622  0.1058
  153POPE   C4A 1721  13.847   8.442   4.618 -0.0184  0.2685 -0.1312
  153POPE   C1B 1722  14.405   7.869   5.261 -0.0048 -0.3656  0.0548
  153POPE   C2B 1723  14.474   7.914   4.885  0.3877  0.1100  0.1150
  153POPE   C3B 1724  14.504   8.111   4.552  0.1091  0.2238 -0.0612
  153POPE   C4B 1725  14.592   8.445   4.554 -0.3470 -0.0573  0.1552
  154POPS   CNO 1726   6.659   2.258   6.556 -0.3248  0.2970  0.1256
  154POPS   PO4 1727   6.977   2.455   6.296 -0.0118  0.4169 -0.0923
  154POPS   GL1 1728   6.732   2.328   5.950 -0.0272 -0.1490  0.1244
  154POPS   GL2 1729   6.851   2.384   5.705 -0.0860  0.1838 -0.4260
  154POPS   C1A 1730   6.371   2.462   5.695 -0.0799 -0.0288  0.0018
  154POPS   D2A 1731   6.304   2.659   5.251  0.1563  0.2901 -0.0576
  154POPS   C3A 1732   5.967   2.577   5.018 -0.2340  0.1665 -0.2145
  154POPS   C4A 1733   5.643   2.495   4.699 -0.0037 -0.2989  0.0507
  154POPS   C1B 1734   6.751   2.731   5.426  0.1896 -0.1537 -0.0329
  154POPS   C2B 1735   6.769   2.701   5.025 -0.3128  0.0239  0.1543
  154POPS   C3B 1736   6.781   2.904   4.644 -0.1220 -0.4872  0.0329
  154POPS   C4B 1737   6.853   3.122   4.253  0.1649 -0.3160  0.0786
  155POPE   NH3 1738   6.931  13.719   6.840  0.2346 -0.0801  0.0506
  155POPE   PO4 1739   7.036  13.631   6.385 -0.3499 -0.3630  0.0184
  155POPE   GL1 1740   7.003  13.689   5.918  0.0253 -0.3502 -0.0002
  155POPE   GL2 1741   6.949  13.968   5.692 -0.1701 -0.2437  0.0513
  155POPE   C1A 1742   7.342  13.526   5.612  0.0769 -0.0005  0.1349
  155POPE   D2A 1743   7.745  13.704   5.498 -0.1974  0.1330  0.1893
  155POPE   C3A 1744   7.889  13.499   5.067 -0.1335  0.4220  0.0862
  155POPE   C4A 1745   7.873  13.543   4.625  0.1219  0.0161 -0.2824
  155POPE   C1B 1746   7.363  14.017   5.412 -0.4579  0.0922 -0.0422
  155POPE   C2B 1747   7.498  13.923   4.935  0.1423  0.2488 -0.0134
  155POPE   C3B 1748   7.567  14.103   4.604  0.1050 -0.1143 -0.0602
  155POPE   C4B 1749   7.655  14.258   4.208 -0.1481  0.2265 -0.1822
  156POSM   NC3 1750   3.337  10.270   6.953  0.0723 -0.0048 -0.1868
  156POSM   PO4 1751   3.482  10.311   6.505  0.1028  0.3902 -0.0478
  156POSM   AM1 1752   3.617  10.445   6.120 -0.0876  0.1573 -0.2807
  156POSM   AM2 1753   3.904  10.321   5.995  0.1368 -0.0449  0.1038
  156POSM   T1A 1754   3.591  10.653   5.772  0.0256  0.1615 -0.2961
  156POSM   C2A 1755   3.627  10.878   5.420 -0.3075  0.2253 -0.2592
  156POSM   C3A 1756   3.814  11.277   5.270  0.0997  0.0469 -0.1442
  156POSM   C1B 1757   3.907  10.255   5.619  0.0082  0.2192  0.2253
  156POSM   D2B 1758   3.903  10.384   5.176 -0.1644 -0.2815 -0.0669
  156POSM   C3B 1759   4.029  10.096   4.781 -0.2399 -0.4199 -0.0412
  156POSM   C4B 1760   3.830   9.974   4.335  0.0081  0.0201  0.1525
  157POPE   NH3 1761  11.848   5.267   6.677 -0.1945  0.0014  0.0438
  157POPE   PO4 1762  12.159   5.686   6.603  0.1243  0.3786  0.0526
  157POPE   GL1 1763  12.147   5.754   6.198  0.5475  0.0206 -0.2778
  157POPE   GL2 1764  12.103   5.476   6.158 -0.1668 -0.1754 -0.1539
  157POPE   C1A 1765  12.197   5.715   5.761 -0.1294  0.0039  0.2094
  157POPE   D2A 1766  12.013   5.747   5.459  0.2659 -0.0655  0.4131
  157POPE   C3A 1767  12.049   5.881   5.014  0.2216 -0.1747 -0.0445
  157POPE   C4A 1768  12.232   6.062   4.661  0.0604  0.0102  0.1317
  157POPE   C1B 1769  11.989   5.284   5.696  0.2676 -0.2398 -0.1009
  157POPE   C2B 1770  11.998   4.946   5.328 -0.0578 -0.2840 -0.1102
  157POPE   C3B 1771  11.702   4.932   5.002  0.0273 -0.0904  0.2236
  157POPE   C4B 1772  11.679   5.119   4.574  0.1230 -0.1607 -0.2734
  158CHOL   ROH 1773   9.197   3.657   5.600  0.1325  0.1139  0.1222
  158CHOL    R1 1774   9.184   3.780   5.346  0.0339  0.1094  0.1247
  158CHOL    R2 1775   9.394   3.771   5.166 -0.0279  0.1261  0.0539
  158CHOL    R3 1776   9.203   3.673   4.999 -0.0756  0.1071  0.1185
  158CHOL    R4 1777   9.452   3.661   4.843 -0.0562 -0.2224  0.1632
  158CHOL    R5 1778   9.265   3.756   4.783  0.0198 -0.1401  0.0456
  158CHOL    C1 1779   9.306   3.505   4.499 -0.1175 -0.4430  0.2876
  158CHOL    C2 1780   9.243   3.568   4.196  0.0406 -0.3613  0.1694
  159POPS   CNO 1781  12.426  10.730   6.814  0.0368 -0.2154  0.0220
  159POPS   PO4 1782  12.496  10.461   6.467  0.0476 -0.0755  0.0803
  159POPS   GL1 1783  12.461  10.338   6.028 -0.0732  0.0830  0.1576
  159POPS   GL2 1784  12.244  10.555   5.793 -0.1824  0.3836 -0.1295
  159POPS   C1A 1785  12.499  10.216   5.520  0.3209 -0.1272 -0.2962
  159POPS   D2A 1786  12.580  10.332   4.989  0.0702 -0.0393  0.1858
  159POPS   C3A 1787  12.900  10.240   4.746  0.1743  0.0764  0.1117
  159POPS   C4A 1788  13.049  10.352   4.352 -0.0569 -0.2135  0.0193
  159POPS   C1B 1789  12.621  10.680   5.609  0.4312  0.4226 -0.3975
  159POPS   C2B 1790  12.973  10.413   5.362 -0.2314  0.2664  0.1855
  159POPS   C3B 1791  13.263  10.227   5.107 -0.0833  0.0369  0.0588
  159POPS   C4B 1792  13.413  10.382   4.732 -0.1473  0.0625  0.0045
  160POSM   NC3 1793   4.305   5.356   6.657  0.2676  0.1229  0.1479
  160POSM   PO4 1794   4.226   5.073   6.341 -0.1215  0.0195 -0.0409
  160POSM   AM1 1795   4.240   4.956   5.857 -0.2239  0.2638  0.0795
  160POSM   AM2 1796   3.996   4.755   5.783 -0.2799 -0.1722 -0.3805
  160POSM   T1A 1797   4.360   5.040   5.353  0.0910  0.2309 -0.1672
  160POSM   C2A 1798   4.215   5.041   4.928 -0.1869  0.0741  0.2315
  160POSM   C3A 1799   4.180   5.246   4.535 -0.0454 -0.2952 -0.2535
  160POSM   C1B 1800   4.021   4.727   5.300  0.0686  0.1606  0.0278
  160POSM   D2B 1801   4.286   4.561   5.052 -0.1447 -0.0130 -0.1755
  160POSM   C3B 1802   4.673   4.675   5.024  0.0139  0.2138  0.0002
  160POSM   C4B 1803   5.037   4.850   4.885  0.1485  0.1071 -0.0975
  161POPE   NH3 1804   9.828  15.091   6.025  0.1402  0.3221  0.1635
  161POPE   PO4 1805  10.196  15.037   5.953  0.2506 -0.1733 -0.2368
  161POPE   GL1 1806  10.121  14.971   5.573 -0.2574 -0.0299  0.0079
  161POPE   GL2 1807   9.784  15.063   5.556 -0.0373 -0.0828  0.1948
  161POPE   C1A 1808   9.989  14.797   5.198  0.0627  0.3784  0.0135
  161POPE   D2A 1809   9.766  14.590   4.801 -0.1082  0.1099  0.0147
  161POPE   C3A 1810   9.505  14.768   4.525 -0.0390 -0.0135  0.1181
  161POPE   C4A 1811   9.227  15.128   4.425  0.1086  0.2207  0.1007
  161POPE   C1B 1812   9.845  15.257   5.125 -0.1099 -0.2152  0.0131
  161POPE   C2B 1813   9.788  15.130   4.786 -0.1401 -0.2135  0.0576
  161POPE   C3B 1814   9.784  15.286   4.378 -0.1566 -0.2327  0.2353
  161POPE   C4B 1815   9.681  15.596   4.047  0.0284  0.3755  0.1248
  162POSM   NC3 1816   9.900  14.049   6.452  0.1297 -0.1336  0.1450
  162POSM   PO4 1817  10.282  14.125   6.380  0.1070  0.0536 -0.1872
  162POSM   AM1 1818  10.307  14.008   6.040  0.0345 -0.1139 -0.0233
  162POSM   AM2 1819  10.557  14.241   5.922  0.0840 -0.1128 -0.3798
  162POSM   T1A 1820  10.223  13.968   5.600 -0.3186 -0.1730  0.1372
  162POSM   C2A 1821  10.272  14.059   5.239 -0.0575  0.2738 -0.2122
  162POSM   C3A 1822  10.449  13.887   4.742  0.1033 -0.0248 -0.0169
  162POSM   C1B 1823  10.512  14.348   5.566  0.0685 -0.0659 -0.0486
  162POSM   D2B 1824  10.415  14.533   5.202 -0.1878 -0.2133 -0.1513
  162POSM   C3B 1825  10.270  14.365   4.851 -0.2781 -0.0720 -0.2823
  162POSM   C4B 1826  10.109  14.324   4.431  0.0435 -0.0106 -0.0088
  163POPS   CNO 1827   5.536   3.791   6.367 -0.0257  0.2817 -0.4724
  163POPS   PO4 1828   5.635   4.087   6.175  0.1666 -0.0446 -0.0951
  163POPS   GL1 1829   5.369   3.805   5.911 -0.1340 -0.2388  0.1277
  163POPS   GL2 1830   5.052   3.601   6.026  0.1039 -0.1932 -0.1069
  163POPS   C1A 1831   5.495   3.694   5.486  0.0827  0.1505 -0.0446
  163POPS   D2A 1832   5.497   3.733   4.992 -0.1284 -0.0992 -0.0799
  163POPS   C3A 1833   5.450   3.472   4.564 -0.0178 -0.0600 -0.0359
  163POPS   C4A 1834   5.220   3.218   4.210 -0.0877 -0.0485 -0.3129
  163POPS   C1B 1835   4.970   3.620   5.579  0.0650  0.2245 -0.1841
  163POPS   C2B 1836   4.988   3.851   5.286  0.0513 -0.0336 -0.1431
  163POPS   C3B 1837   5.083   3.935   4.808 -0.1931 -0.2119 -0.1242
  163POPS   C4B 1838   5.364   4.029   4.469 -0.1482  0.2042  0.1020
  164POPE   NH3 1839   5.275  13.110   6.344 -0.3249  0.0422 -0.1590
  164POPE   PO4 1840   5.734  13.019   6.350 -0.1860 -0.1465 -0.3960
  164POPE   GL1 1841   5.794  12.798   5.934 -0.0947 -0.1340 -0.3551
  164POPE   GL2 1842   6.101  12.773   5.771 -0.2008 -0.3510 -0.2171
  164POPE   C1A 1843   5.447  12.861   5.688  0.1895 -0.2634  0.2264
  164POPE   D2A 1844   5.111  12.837   5.458  0.2132  0.2160  0.1859
  164POPE   C3A 1845   5.004  12.935   5.054  0.0763  0.0609  0.0396
  164POPE   C4A 1846   5.017  12.950   4.602 -0.0111  0.0781  0.0081
  164POPE   C1B 1847   6.070  12.891   5.264  0.0694  0.1201  0.4586
  164POPE   C2B 1848   6.346  12.966   4.847  0.0035  0.0494 -0.2149
  164POPE   C3B 1849   6.266  13.059   4.438 -0.0826 -0.0514 -0.1887
  164POPE   C4B 1850   6.046  13.022   4.106  0.2995  0.3007  0.0811
  165POPS   CNO 1851   4.613  11.508   5.968  0.1010 -0.1435 -0.0567
  165POPS   PO4 1852   4.628  11.098   6.255 -0.1167  0.1440 -0.0303
  165POPS   GL1 1853   4.412  11.085   5.809  0.2165 -0.1119  0.0578
  165POPS   GL2 1854   4.250  11.338   5.626 -0.2266 -0.3351 -0.1886
  165POPS   C1A 1855   4.587  10.924   5.384 -0.1616 -0.0294 -0.0168
  165POPS   D2A 1856   4.510  10.748   4.998  0.2294  0.3907  0.1399
  165POPS   C3A 1857   4.354  10.993   4.684 -0.2163  0.0128  0.2928
  165POPS   C4A 1858   4.010  11.032   4.400  0.2819  0.3120 -0.0635
  165POPS   C1B 1859   4.294  11.305   5.140 -0.2258  0.0947  0.2175
  165POPS   C2B 1860   4.106  11.405   4.753  0.0087 -0.0550 -0.1750
  165POPS   C3B 1861   4.283  11.486   4.335 -0.1257  0.1058 -0.1289
  165POPS   C4B 1862   4.242  11.576   3.922 -0.2170 -0.2049  0.2930
  166POPS   CNO 1863   3.561   6.459   6.388 -0.2925  0.2838  0.1692
  166POPS   PO4 1864   3.160   6.663   6.349 -0.2270 -0.3151 -0.2615
  166POPS   GL1 1865   3.385   6.771   6.041 -0.2785 -0.0507  0.2681
  166POPS   GL2 1866   3.168   6.749   5.638  0.1213  0.0071 -0.1957
  166POPS   C1A 1867   3.673   6.780   5.671 -0.0983  0.2324  0.1172
  166POPS   D2A 1868   3.768   6.848   5.243  0.5249  0.0927 -0.0907
  166POPS   C3A 1869   3.515   6.968   4.919 -0.1154  0.1479 -0.3193
  166POPS   C4A 1870   3.357   6.901   4.501 -0.5439 -0.1629  0.5367
  166POPS   C1B 1871   2.961   6.856   5.237  0.3630  0.4179 -0.0718
  166POPS   C2B 1872   2.894   6.844   4.806  0.1893  0.0510 -0.2632
  166POPS   C3B 1873   2.858   6.694   4.425 -0.0411 -0.4074  0.3588
  166POPS   C4B 1874   2.577   6.574   4.109 -0.0246  0.0218 -0.0955
  167POPE   NH3 1875   4.415   6.303   6.160 -0.1830 -0.0220  0.0525
  167POPE   PO4 1876   3.957   6.374   6.084 -0.2101 -0.1802 -0.2268
  167POPE   GL1 1877   3.760   6.271   5.678  0.0539 -0.1290 -0.0158
  167POPE   GL2 1878   3.414   6.270   5.750  0.0569 -0.0301  0.0635
  167POPE   C1A 1879   3.906   6.383   5.213  0.0757 -0.0327  0.1322
  167POPE   D2A 1880   3.789   6.499   4.821 -0.0835 -0.1924 -0.1150
  167POPE   C3A 1881   3.521   6.433   4.560 -0.4180  0.0003 -0.1132
  167POPE   C4A 1882   3.341   6.492   4.274  0.0836 -0.2186 -0.1781
  167POPE   C1B 1883   3.448   6.467   5.302 -0.0336  0.0797  0.1328
  167POPE   C2B 1884   3.223   6.453   5.021 -0.2542  0.1904 -0.3269
  167POPE   C3B 1885   3.048   6.323   4.660 -0.1973  0.2422  0.0443
  167POPE   C4B 1886   2.703   6.045   4.577  0.2874 -0.2625 -0.0112
  168POPC   NC3 1887  11.394  13.360   6.171  0.2947 -0.1791 -0.1805
  168POPC   PO4 1888  11.170  13.762   6.318  0.3535  0.0454  0.0791
  168POPC   GL1 1889  11.305  13.789   5.846  0.2191 -0.1939 -0.2391
  168POPC   GL2 1890  11.127  14.016   5.778  0.1183  0.0128 -0.2165
  168POPC   C1A 1891  11.252  13.697   5.369  0.0217 -0.2968  0.0041
  168POPC   D2A 1892  11.191  13.449   4.945 -0.2680  0.3963  0.2074
  168POPC   C3A 1893  10.814  13.407   4.736 -0.0742 -0.0288 -0.0330
  168POPC   C4A 1894  10.602  13.496   4.353 -0.1344  0.1563  0.0815
  168POPC   C1B 1895  10.819  13.934   5.567  0.3278 -0.3357 -0.1368
  168POPC   C2B 1896  10.776  13.877   5.114 -0.1275 -0.0531 -0.0190
  168POPC   C3B 1897  11.088  13.962   4.778  0.0691 -0.2392 -0.1169
  168POPC   C4B 1898  11.373  13.741   4.555  0.0555  0.0105  0.1340
  169POPC   NC3 1899   9.024  13.878   6.475 -0.2315  0.1503 -0.1277
  169POPC   PO4 1900   8.973  14.290   6.345 -0.2892 -0.0098  0.2473
  169POPC   GL1 1901   8.926  14.070   6.033 -0.0030 -0.4270  0.1582
  169POPC   GL2 1902   8.652  13.931   5.966 -0.3249 -0.2838  0.1261
  169POPC   C1A 1903   9.287  13.873   5.827 -0.4945  0.1642  0.1048
  169POPC   D2A 1904   9.621  13.959   5.534  0.0216  0.1128 -0.0917
  169POPC   C3A 1905   9.873  13.676   5.432  0.1412  0.1994  0.0321
  169POPC   C4A 1906  10.033  13.579   5.038  0.0086  0.1138 -0.2481
  169POPC   C1B 1907   8.816  13.684   5.574  0.2826  0.0760 -0.1618
  169POPC   C2B 1908   8.643  13.533   5.280  0.4080  0.0874  0.1062
  169POPC   C3B 1909   8.444  13.376   4.972  0.2451 -0.1431  0.3321
  169POPC   C4B 1910   8.296  12.994   4.661  0.0126  0.1563 -0.0694
  170POPE   NH3 1911   7.957   2.783   7.135  0.1541  0.0291  0.2188
  170POPE   PO4 1912   7.821   2.776   6.671 -0.0561 -0.2490 -0.0486
  170POPE   GL1 1913   7.891   2.816   6.195  0.0610  0.2254  0.1623
  170POPE   GL2 1914   7.725   2.810   5.975 -0.2116  0.3110  0.1750
  170POPE   C1A 1915   8.212   2.828   5.845  0.0757  0.0635  0.1366
  170POPE   D2A 1916   8.143   2.923   5.482  0.0783 -0.0328 -0.2547
  170POPE   C3A 1917   8.154   2.574   5.236 -0.0549  0.1845 -0.0878
  170POPE   C4A 1918   8.138   2.526   4.759  0.1390 -0.1100 -0.2763
  170POPE   C1B 1919   7.464   2.859   5.671 -0.2513 -0.1131 -0.0782
  170POPE   C2B 1920   7.293   2.987   5.294  0.0462 -0.0754 -0.0261
  170POPE   C3B 1921   7.236   2.915   4.878 -0.4505 -0.3970 -0.0230
  170POPE   C4B 1922   7.298   3.110   4.458  0.0612 -0.1849 -0.0500
  171POPE   NH3 1923  15.001   6.936   6.376  0.1221  0.1380 -0.2114
  171POPE   PO4 1924  15.306   7.152   6.256 -0.1447 -0.3226 -0.2995
  171POPE   GL1 1925  15.160   7.061   5.859  0.0722  0.2405  0.1856
  171POPE   GL2 1926  15.423   7.123   5.699  0.3053 -0.1616 -0.0554
  171POPE   C1A 1927  14.821   6.999   5.521  0.1384  0.0339 -0.1429
  171POPE   D2A 1928  14.999   6.946   4.993 -0.1373  0.0466  0.0339
  171POPE   C3A 1929  14.655   7.222   4.747 -0.2416  0.1854  0.1282
  171POPE   C4A 1930  14.427   7.602   4.420 -0.3198 -0.0278  0.0202
  171POPE   C1B 1931  15.400   7.078   5.301 -0.2525 -0.0658  0.0593
  171POPE   C2B 1932  15.477   7.130   4.845  0.1452  0.1127 -0.0338
  171POPE   C3B 1933  15.649   7.341   4.539 -0.1696  0.1392  0.4756
  171POPE   C4B 1934  15.952   7.564   4.242  0.0589  0.0626 -0.1818
  172POSM   NC3 1935   9.768   2.449   6.487  0.0149  0.2005  0.1738
  172POSM   PO4 1936  10.091   2.845   6.517 -0.0127  0.0170  0.1553
  172POSM   AM1 1937  10.085   2.755   6.163  0.0855 -0.2167  0.2743
  172POSM   AM2 1938  10.141   3.046   5.984  0.2618  0.0278  0.2511
  172POSM   T1A 1939  10.003   2.634   5.692  0.1306  0.3272 -0.2075
  172POSM   C2A 1940   9.901   2.537   5.365  0.1994  0.2340  0.1560
  172POSM   C3A 1941   9.865   2.303   4.976 -0.1492 -0.3257  0.0434
  172POSM   C1B 1942  10.078   3.140   5.666  0.2322 -0.4720  0.2090
  172POSM   D2B 1943   9.956   3.062   5.229  0.1635  0.4098 -0.0271
  172POSM   C3B 1944  10.319   3.100   4.934  0.1395 -0.1960 -0.1574
  172POSM   C4B 1945  10.849   3.220   4.923  0.0920 -0.3833 -0.0613
  173POPS   CNO 1946   4.129   8.141   6.654 -0.3032  0.0061 -0.3031
  173POPS   PO4 1947   3.651   8.191   6.417 -0.1222 -0.1431  0.3825
  173POPS   GL1 1948   3.686   8.003   5.967 -0.2080 -0.0695 -0.0880
  173POPS   GL2 1949   3.733   7.652   5.916 -0.0613 -0.3516  0.0939
  173POPS   C1A 1950   3.578   8.114   5.520 -0.1083 -0.0591 -0.1975
  173POPS   D2A 1951   3.165   8.185   5.248  0.1724  0.0008 -0.1572
  173POPS   C3A 1952   3.246   8.243   4.810  0.0161  0.1023 -0.0343
  173POPS   C4A 1953   3.274   7.849   4.572  0.0094  0.2040  0.1954
  173POPS   C1B 1954   3.716   7.625   5.473 -0.1660  0.1920  0.0983
  173POPS   C2B 1955   3.821   7.301   5.146 -0.2662  0.2329 -0.0733
  173POPS   C3B 1956   3.968   7.020   4.695  0.0618 -0.0544  0.0739
  173POPS   C4B 1957   4.331   6.670   4.678  0.2914 -0.0837  0.1911
  174POSM   NC3 1958  12.277   5.333   6.989 -0.1318  0.1503  0.0891
  174POSM   PO4 1959  12.581   5.059   6.823 -0.2343 -0.0999  0.0776
  174POSM   AM1 1960  12.538   5.313   6.470 -0.0620 -0.1407  0.0398
  174POSM   AM2 1961  12.765   5.141   6.267 -0.1169  0.1637  0.1944
  174POSM   T1A 1962  12.558   5.593   6.053 -0.1935  0.1416  0.0720
  174POSM   C2A 1963  12.856   5.760   5.752  0.1722 -0.2306 -0.0804
  174POSM   C3A 1964  12.930   6.077   5.496 -0.5203  0.1887  0.1562
  174POSM   C1B 1965  12.958   5.174   5.809  0.0025 -0.0990  0.2743
  174POSM   D2B 1966  12.936   5.296   5.458  0.2472  0.4132  0.1156
  174POSM   C3B 1967  13.232   5.331   5.057 -0.0662 -0.0385  0.4645
  174POSM   C4B 1968  13.137   5.184   4.742 -0.0214 -0.0287 -0.3126
  175CHOL   ROH 1969   2.983   6.334   5.478 -0.0594 -0.0058  0.1992
  175CHOL    R1 1970   2.795   6.304   5.268  0.0516 -0.1241  0.1154
  175CHOL    R2 1971   2.561   6.451   5.255 -0.0285 -0.2551  0.0001
  175CHOL    R3 1972   2.654   6.516   5.009  0.0501 -0.2171  0.0400
  175CHOL    R4 1973   2.364   6.533   4.983  0.0648 -0.2087 -0.0534
  175CHOL    R5 1974   2.499   6.418   4.857  0.1012 -0.1885 -0.0270
  175CHOL    C1 1975   2.338   6.642   4.593  0.1929 -0.1459 -0.0470
  175CHOL    C2 1976   2.123   6.995   4.502 -0.0875  0.1177 -0.2365
  176POPC   NC3 1977  13.920  11.792   6.510 -0.1259 -0.1669  0.0279
  176POPC   PO4 1978  13.505  11.504   6.397 -0.2319 -0.2924 -0.1296
  176POPC   GL1 1979  13.451  11.278   6.084  0.1201  0.0896 -0.2129
  176POPC   GL2 1980  13.226  11.077   6.071  0.0266 -0.4198  0.1713
  176POPC   C1A 1981  13.276  11.489   5.704 -0.1654 -0.2071  0.4152
  176POPC   D2A 1982  13.060  11.459   5.279  0.1947 -0.1436 -0.0679
  176POPC   C3A 1983  13.160  11.041   5.184 -0.0527  0.1892 -0.0748
  176POPC   C4A 1984  13.525  10.700   5.228  0.2341  0.0276 -0.1013
  176POPC   C1B 1985  12.910  11.179   5.761  0.2071  0.0075  0.4517
  176POPC   C2B 1986  12.744  11.130   5.417  0.3950 -0.2389 -0.0876
  176POPC   C3B 1987  12.705  10.787   5.131 -0.1708 -0.1094  0.2547
  176POPC   C4B 1988  12.648  10.811   4.633 -0.0497 -0.3832 -0.1618
  177POPC   NC3 1989   6.659  14.012   6.043  0.3376  0.0888  0.0239
  177POPC   PO4 1990   6.348  13.995   5.901 -0.0020  0.1373 -0.2830
  177POPC   GL1 1991   6.424  13.814   5.576  0.1806  0.2416  0.1095
  177POPC   GL2 1992   6.574  13.602   5.597  0.0747 -0.0069 -0.0597
  177POPC   C1A 1993   6.366  13.892   5.181 -0.1417 -0.3590  0.1338
  177POPC   D2A 1994   6.047  13.826   4.942 -0.0389 -0.1330 -0.0669
  177POPC   C3A 1995   6.147  13.649   4.548  0.2041  0.3828 -0.1453
  177POPC   C4A 1996   6.404  13.633   4.186 -0.1829  0.0974 -0.2014
  177POPC   C1B 1997   6.836  13.597   5.281 -0.0211  0.1127 -0.1380
  177POPC   C2B 1998   7.049  13.687   4.959  0.2604  0.0003  0.2298
  177POPC   C3B 1999   7.069  13.746   4.531 -0.1724 -0.2627  0.1254
  177POPC   C4B 2000   7.033  13.698   4.051 -0.1067 -0.0541 -0.0961
  178POPE   NH3 2001  10.809  12.787   6.240 -0.2890 -0.2551 -0.0630
  178POPE   PO4 2002  11.120  12.978   5.984 -0.1329 -0.1218 -0.2283
  178POPE   GL1 2003  11.189  12.945   5.556  0.1369  0.0142 -0.2688
  178POPE   GL2 2004  11.384  13.176   5.354  0.1109  0.0160 -0.3394
  178POPE   C1A 2005  11.256  12.696   5.185  0.2101 -0.2920  0.0377
  178POPE   D2A 2006  11.579  12.427   5.064  0.0176 -0.1536 -0.1525
  178POPE   C3A 2007  11.898  12.638   4.689  0.1332 -0.2617 -0.1467
  178POPE   C4A 2008  12.097  12.763   4.321 -0.1452  0.2290 -0.1757
  178POPE   C1B 2009  11.750  13.428   5.054  0.0688 -0.1806  0.0940
  178POPE   C2B 2010  11.846  13.635   4.582 -0.1328 -0.0493 -0.0819
  178POPE   C3B 2011  12.008  13.962   4.407  0.0258 -0.1391 -0.2037
  178POPE   C4B 2012  11.916  14.214   4.082  0.3142 -0.3967 -0.2058
  179POPE   NH3 2013   4.238  11.418   6.259 -0.2283 -0.0330  0.2652
  179POPE   PO4 2014   3.885  11.334   5.927  0.0907 -0.3634  0.2100
  179POPE   GL1 2015   3.540  11.215   5.761  0.0600  0.2019  0.0757
  179POPE   GL2 2016   3.269  10.991   5.705  0.2217 -0.1020 -0.2798
  179POPE   C1A 2017   3.348  11.332   5.353 -0.1141  0.1071  0.0354
  179POPE   D2A 2018   3.290  10.924   5.084  0.1488  0.2597 -0.1304
  179POPE   C3A 2019   3.464  10.588   5.015 -0.2915 -0.2653 -0.1894
  179POPE   C4A 2020   3.460  10.362   4.617 -0.2594  0.3639  0.0882
  179POPE   C1B 2021   3.120  10.703   5.531 -0.5108  0.1162  0.2702
  179POPE   C2B 2022   2.915  10.494   5.231 -0.0709 -0.0578  0.0476
  179POPE   C3B 2023   2.987  10.501   4.812 -0.0615 -0.0887 -0.3602
  179POPE   C4B 2024   2.591  10.442   4.567  0.0129 -0.0983 -0.0636
  180POPE   NH3 2025   4.301   4.117   6.338 -0.1979  0.0878 -0.5046
  180POPE   PO4 2026   4.129   4.078   6.021 -0.0536 -0.0440 -0.0126
  180POPE   GL1 2027   4.253   4.301   5.698  0.2479 -0.1329  0.0484
  180POPE   GL2 2028   4.495   4.554   5.578 -0.0143  0.5313  0.2057
  180POPE   C1A 2029   4.130   4.196   5.288 -0.4546 -0.1944 -0.1447
  180POPE   D2A 2030   4.154   3.998   4.907  0.0858 -0.0004  0.4245
  180POPE   C3A 2031   4.410   3.668   4.648 -0.1961 -0.0262  0.0117
  180POPE   C4A 2032   4.371   3.366   4.394  0.0663  0.2875  0.1704
  180POPE   C1B 2033   4.628   4.277   5.330 -0.1452  0.3469 -0.2260
  180POPE   C2B 2034   4.656   4.156   4.986 -0.0108  0.2296  0.2603
  180POPE   C3B 2035   4.481   4.317   4.660  0.2545  0.1062  0.0206
  180POPE   C4B 2036   4.369   4.141   4.443 -0.0887  0.1840  0.1231
  181POPC   NC3 2037   8.200  14.020   6.199  0.0672 -0.1346  0.0465
  181POPC   PO4 2038   8.447  14.254   6.314  0.0270 -0.0876 -0.2473
  181POPC   GL1 2039   8.438  14.409   5.973  0.3405 -0.1412  0.1770
  181POPC   GL2 2040   8.738  14.536   5.833  0.0954  0.3154  0.0461
  181POPC   C1A 2041   8.223  14.623   5.631  0.0501 -0.0373  0.0501
  181POPC   D2A 2042   8.054  14.651   5.178  0.1029  0.0938  0.0793
  181POPC   C3A 2043   8.382  14.596   4.835  0.2598  0.1701 -0.0296
  181POPC   C4A 2044   8.802  14.434   4.727  0.2291 -0.1479  0.0666
  181POPC   C1B 2045   8.684  14.267   5.582  0.2270  0.1378  0.1467
  181POPC   C2B 2046   8.842  14.021   5.234  0.1398  0.2149  0.0969
  181POPC   C3B 2047   8.905  13.782   4.906 -0.1095  0.0102 -0.0655
  181POPC   C4B 2048   9.170  13.739   4.559 -0.1975  0.0499 -0.0632
  182POPC   NC3 2049   6.503   2.744   6.821  0.1158  0.0639 -0.0829
  182POPC   PO4 2050   6.132   2.551   6.511 -0.1735  0.2661 -0.2221
  182POPC   GL1 2051   5.967   2.599   6.120 -0.0536  0.2946 -0.1103
  182POPC   GL2 2052   5.951   2.303   5.893 -0.3151 -0.1178 -0.0128
  182POPC   C1A 2053   5.993   2.774   5.656 -0.2455 -0.0869  0.0904
  182POPC   D2A 2054   5.775   3.068   5.366 -0.0550  0.0340 -0.0938
  182POPC   C3A 2055   5.621   2.920   5.014 -0.0839  0.0029 -0.0260
  182POPC   C4A 2056   5.347   3.016   4.720  0.1353 -0.1600  0.3272
  182POPC   C1B 2057   6.021   2.232   5.428 -0.0228 -0.1248  0.0308
  182POPC   C2B 2058   6.239   2.125   5.040  0.0419  0.1411  0.1231
  182POPC   C3B 2059   6.088   2.202   4.576 -0.1257 -0.0992 -0.2868
  182POPC   C4B 2060   6.000   2.118   4.084  0.2155 -0.2500  0.2462
  183CHOL   ROH 2061  14.353   9.469   5.735  0.1676 -0.0475  0.0016
  183CHOL    R1 2062  14.292   9.657   5.533  0.0479  0.0345  0.1119
  183CHOL    R2 2063  14.431   9.669   5.294  0.0211  0.2419  0.1011
  183CHOL    R3 2064  14.182   9.646   5.186  0.0212  0.1665  0.1167
  183CHOL    R4 2065  14.347   9.755   4.970 -0.0407  0.2334  0.1148
  183CHOL    R5 2066  14.160   9.838   5.045 -0.0589  0.1642  0.1319
  183CHOL    C1 2067  14.065   9.784   4.680 -0.0766  0.1578  0.1374
  183CHOL    C2 2068  13.985   9.943   4.287  0.1713 -0.0747  0.0092
  184POPE   NH3 2069   3.974   8.566   6.452 -0.1469  0.0429  0.0160
  184POPE   PO4 2070   3.885   9.028   6.211 -0.0635 -0.2859 -0.1001
  184POPE   GL1 2071   3.888   9.294   5.868  0.0752 -0.2875 -0.0647
  184POPE   GL2 2072   3.970   9.592   6.126  0.3833 -0.2852  0.2920
  184POPE   C1A 2073   3.973   9.352   5.438  0.0235  0.1802  0.0694
  184POPE   D2A 2074   4.336   9.265   5.199 -0.0812  0.1700 -0.4144
  184POPE   C3A 2075   4.248   9.205   4.829  0.1239  0.0731  0.0816
  184POPE   C4A 2076   4.493   9.227   4.486  0.0103 -0.2535 -0.3054
  184POPE   C1B 2077   3.866   9.776   5.719 -0.1890  0.1365  0.2495
  184POPE   C2B 2078   3.816   9.854   5.255 -0.0141  0.2759  0.2893
  184POPE   C3B 2079   3.862   9.543   4.962 -0.1182  0.2676  0.1298
  184POPE   C4B 2080   3.778   9.296   4.639 -0.1877 -0.0359  0.0216
  185POPS   CNO 2081  13.811   9.560   6.729 -0.3721  0.2303  0.0628
  185POPS   PO4 2082  13.947   9.950   6.490 -0.2271 -0.1849  0.1522
  185POPS   GL1 2083  13.812  10.036   6.075  0.0784  0.2029 -0.2388
  185POPS   GL2 2084  13.519  10.278   6.005  0.3004 -0.0326 -0.2035
  185POPS   C1A 2085  13.645   9.687   5.801  0.4475 -0.1282 -0.1605
  185POPS   D2A 2086  13.791   9.498   5.429 -0.0031  0.0471 -0.1788
  185POPS   C3A 2087  13.728   9.336   5.089  0.1615 -0.1981  0.5222
  185POPS   C4A 2088  13.422   9.361   4.751 -0.1456 -0.1343  0.0572
  185POPS   C1B 2089  13.342  10.082   5.610  0.0263  0.0580 -0.0506
  185POPS   C2B 2090  13.386   9.780   5.339  0.3278  0.3278  0.0259
  185POPS   C3B 2091  13.595   9.805   4.968  0.1190  0.0158  0.2173
  185POPS   C4B 2092  13.576   9.838   4.488  0.0874  0.2940  0.2405
  186POPC   NC3 2093   5.264   3.006   6.455 -0.1209 -0.1875  0.1882
  186POPC   PO4 2094   4.816   2.855   6.322  0.2225 -0.3256 -0.2537
  186POPC   GL1 2095   5.045   3.105   5.973  0.0386 -0.0211  0.0654
  186POPC   GL2 2096   4.781   3.055   5.795  0.0736  0.0559  0.0775
  186POPC   C1A 2097   5.351   3.182   5.633  0.2666 -0.2786 -0.3447
  186POPC   D2A 2098   5.318   3.224   5.206 -0.2311 -0.1083 -0.2285
  186POPC   C3A 2099   5.095   3.469   4.963  0.1032  0.2494 -0.1127
  186POPC   C4A 2100   4.885   3.524   4.552  0.0192  0.1216  0.2031
  186POPC   C1B 2101   4.852   3.170   5.388 -0.1789  0.1562  0.2146
  186POPC   C2B 2102   4.796   3.121   4.944  0.0248  0.3839 -0.0465
  186POPC   C3B 2103   4.828   2.745   4.668  0.0643 -0.1371  0.4867
  186POPC   C4B 2104   4.619   2.372   4.403 -0.0877 -0.0037 -0.0380
  187CHOL   ROH 2105   3.705   5.734   5.610 -0.1083 -0.0705 -0.0275
  187CHOL    R1 2106   3.649   5.905   5.392  0.0440 -0.0272 -0.0333
  187CHOL    R2 2107   3.795   5.899   5.157  0.0425 -0.1637 -0.0314
  187CHOL    R3 2108   3.550   5.865   5.044  0.0117  0.0478 -0.0335
  187CHOL    R4 2109   3.722   5.955   4.824  0.1521 -0.3312 -0.0848
  187CHOL    R5 2110   3.533   6.044   4.885  0.2506 -0.0498 -0.1740
  187CHOL    C1 2111   3.451   5.955   4.523  0.1869 -0.2301 -0.1178
  187CHOL    C2 2112   3.607   5.988   4.068  0.2965 -0.0370 -0.0147
  188POPS   CNO 2113  14.469   8.447   6.359 -0.0451 -0.0153  0.1143
  188POPS   PO4 2114  14.514   8.874   6.471 -0.2445 -0.0490 -0.0953
  188POPS   GL1 2115  14.182   8.747   6.055  0.1795  0.1246 -0.2424
  188POPS   GL2 2116  14.279   8.968   5.750  0.0926  0.4120  0.1048
  188POPS   C1A 2117  13.970   8.641   5.581  0.0104 -0.0814  0.2320
  188POPS   D2A 2118  13.797   8.588   5.122  0.0675 -0.2062 -0.1231
  188POPS   C3A 2119  13.810   8.902   4.825  0.0869 -0.0486  0.0801
  188POPS   C4A 2120  13.914   8.916   4.380 -0.0427  0.2220 -0.1259
  188POPS   C1B 2121  14.133   9.178   5.353  0.1518  0.4886  0.1782
  188POPS   C2B 2122  14.215   9.252   4.881 -0.0375  0.1302 -0.0298
  188POPS   C3B 2123  13.925   9.350   4.543  0.1934 -0.1846  0.0395
  188POPS   C4B 2124  13.812   9.470   4.133 -0.1222 -0.1172  0.2285
  189POPS   CNO 2125   4.933  12.815   6.515  0.0271 -0.2165 -0.0949
  189POPS   PO4 2126   4.956  12.677   6.072  0.0460 -0.1626  0.1237
  189POPS   GL1 2127   4.708  12.811   5.768 -0.0051  0.1585  0.0478
  189POPS   GL2 2128   4.780  13.168   5.651 -0.1256 -0.0889 -0.1606
  189POPS   C1A 2129   4.639  12.794   5.308  0.0567 -0.2381 -0.0002
  189POPS   D2A 2130   4.570  12.688   4.983 -0.0880  0.2491  0.1609
  189POPS   C3A 2131   4.641  12.631   4.601 -0.0313 -0.0267 -0.0274
  189POPS   C4A 2132   4.648  12.262   4.239 -0.2433 -0.1412  0.1627
  189POPS   C1B 2133   4.671  13.310   5.245  0.0031 -0.3022 -0.1187
  189POPS   C2B 2134   4.697  13.239   4.866 -0.1602  0.3181 -0.0517
  189POPS   C3B 2135   4.811  13.366   4.433  0.0336  0.2768 -0.1337
  189POPS   C4B 2136   5.070  13.215   4.022  0.1251  0.0042 -0.0903
  190POPE   NH3 2137   5.169  12.220   6.198  0.2682 -0.1496  0.0358
  190POPE   PO4 2138   4.988  11.858   6.167 -0.0436 -0.0517  0.0541
  190POPE   GL1 2139   4.865  12.067   5.809 -0.0525 -0.0083  0.2692
  190POPE   GL2 2140   4.688  11.896   5.649  0.0099 -0.4410 -0.1052
  190POPE   C1A 2141   4.941  12.308   5.410  0.0699  0.2138  0.3137
  190POPE   D2A 2142   4.956  12.427   4.971  0.1178  0.0963  0.1429
  190POPE   C3A 2143   4.781  12.166   4.730  0.1408  0.3005 -0.0368
  190POPE   C4A 2144   4.512  11.858   4.481 -0.2846 -0.2008 -0.1842
  190POPE   C1B 2145   4.625  11.480   5.455 -0.0931 -0.0613  0.2132
  190POPE   C2B 2146   4.741  11.200   5.005  0.4766  0.0560 -0.1340
  190POPE   C3B 2147   4.883  10.976   4.733  0.0821  0.1980  0.2143
  190POPE   C4B 2148   4.687  10.563   4.579 -0.1775  0.0215 -0.0349
  191POPC   NC3 2149   6.297   2.126   6.261 -0.1023 -0.1148  0.0727
  191POPC   PO4 2150   6.732   1.872   6.241 -0.1156  0.1520 -0.0074
  191POPC   GL1 2151   6.583   1.871   5.908 -0.2588 -0.3109  0.3041
  191POPC   GL2 2152   6.253   1.820   5.869  0.2239  0.0242  0.0279
  191POPC   C1A 2153   6.922   1.909   5.546  0.0148  0.0531  0.1560
  191POPC   D2A 2154   6.933   1.827   5.108 -0.0182  0.0507 -0.3872
  191POPC   C3A 2155   6.879   1.639   4.749  0.0078  0.1286  0.0114
  191POPC   C4A 2156   6.465   1.837   4.438  0.0870  0.0805 -0.2374
  191POPC   C1B 2157   6.425   1.958   5.479 -0.1449 -0.2555  0.4442
  191POPC   C2B 2158   6.641   2.222   5.272 -0.1585 -0.1325  0.0537
  191POPC   C3B 2159   6.642   2.302   4.809 -0.1463  0.0711 -0.0890
  191POPC   C4B 2160   6.327   2.657   4.689 -0.0705  0.3564 -0.0387
  192POSM   NC3 2161  11.915   3.456   6.305  0.1826  0.1461  0.0963
  192POSM   PO4 2162  11.413   3.611   6.275 -0.2481  0.2002  0.2791
  192POSM   AM1 2163  11.628   3.838   6.054 -0.1819 -0.1318  0.1468
  192POSM   AM2 2164  11.725   4.206   6.087  0.0136 -0.0375  0.0574
  192POSM   T1A 2165  11.367   3.963   5.735  0.2332  0.0869 -0.0342
  192POSM   C2A 2166  11.093   3.942   5.360 -0.0358  0.1277  0.1404
  192POSM   C3A 2167  11.218   3.706   5.043 -0.2480  0.3137  0.0472
  192POSM   C1B 2168  11.842   4.112   5.660 -0.1927  0.1537 -0.0772
  192POSM   D2B 2169  11.598   4.145   5.254  0.1629  0.0726  0.1609
  192POSM   C3B 2170  11.834   4.316   4.889 -0.0925  0.2838  0.0686
  192POSM   C4B 2171  12.148   4.223   4.656 -0.1188 -0.0809 -0.2775
  193POPE   NH3 2172   8.756   2.596   6.616 -0.2212 -0.0107  0.1019
  193POPE   PO4 2173   8.984   2.944   6.596  0.2305 -0.1826  0.0734
  193POPE   GL1 2174   9.055   2.810   6.181  0.2227 -0.0193 -0.0932
  193POPE   GL2 2175   8.886   2.497   6.168 -0.2358  0.0184  0.1463
  193POPE   C1A 2176   9.163   2.780   5.788 -0.2956  0.1964  0.2107
  193POPE   D2A 2177   9.493   2.843   5.514 -0.0002  0.3121  0.1270
  193POPE   C3A 2178   9.484   2.725   5.083  0.2744 -0.0879 -0.1111
  193POPE   C4A 2179   9.494   2.632   4.614  0.2520  0.0102 -0.1917
  193POPE   C1B 2180   8.707   2.514   5.878  0.2343  0.1839 -0.2255
  193POPE   C2B 2181   8.594   2.646   5.605 -0.2040 -0.0945 -0.0545
  193POPE   C3B 2182   8.533   2.928   5.151  0.1193  0.1562 -0.1111
  193POPE   C4B 2183   8.481   3.068   4.758 -0.3748 -0.0560 -0.3907
  194POPE   NH3 2184  12.875  10.807   6.358 -0.2500  0.0545 -0.0344
  194POPE   PO4 2185  13.275  10.657   6.335  0.0692 -0.0266  0.2115
  194POPE   GL1 2186  13.636  10.803   6.058 -0.0802 -0.1954  0.0725
  194POPE   GL2 2187  13.967  10.663   6.016  0.3483  0.2312 -0.0699
  194POPE   C1A 2188  13.622  11.081   5.717  0.0658 -0.0253  0.1878
  194POPE   D2A 2189  13.612  11.221   5.382 -0.1476  0.2557 -0.0848
  194POPE   C3A 2190  13.960  11.398   5.102  0.2296  0.3148 -0.1764
  194POPE   C4A 2191  14.182  11.668   4.982  0.0856 -0.2996  0.0206
  194POPE   C1B 2192  14.042  10.821   5.538 -0.3339  0.2129  0.0672
  194POPE   C2B 2193  14.381  11.040   5.204 -0.0127  0.0816 -0.4888
  194POPE   C3B 2194  14.372  11.265   4.841  0.0340  0.0351 -0.1762
  194POPE   C4B 2195  14.269  11.495   4.450 -0.0236  0.0002 -0.1007
  195POPS   CNO 2196  14.370   6.575   6.493 -0.0502 -0.1942 -0.2703
  195POPS   PO4 2197  14.635   6.740   6.094 -0.1315 -0.1549 -0.0628
  195POPS   GL1 2198  14.893   6.577   5.792 -0.1246 -0.1575 -0.0387
  195POPS   GL2 2199  15.257   6.552   5.936 -0.0172  0.2422  0.1085
  195POPS   C1A 2200  14.832   6.531   5.380  0.0254 -0.0067 -0.2612
  195POPS   D2A 2201  14.873   6.470   4.897  0.1555 -0.0052 -0.4457
  195POPS   C3A 2202  14.673   6.742   4.524 -0.1479  0.1749  0.0601
  195POPS   C4A 2203  14.615   7.119   4.223  0.2054 -0.0386 -0.3063
  195POPS   C1B 2204  15.375   6.644   5.548  0.0899 -0.0986  0.2135
  195POPS   C2B 2205  15.367   6.639   5.111 -0.1073  0.0753 -0.0103
  195POPS   C3B 2206  15.201   6.709   4.623 -0.0273 -0.0395 -0.2733
  195POPS   C4B 2207  15.302   6.657   4.213  0.1140  0.2901 -0.2086
  196POPE   NH3 2208  11.826   4.475   6.511  0.3865  0.1263 -0.2777
  196POPE   PO4 2209  11.647   4.837   6.499 -0.2143  0.1699 -0.3626
  196POPE   GL1 2210  11.487   4.699   6.120 -0.0597 -0.0518 -0.1095
  196POPE   GL2 2211  11.803   4.714   5.970 -0.1371  0.0493  0.3117
  196POPE   C1A 2212  11.406   4.474   5.717  0.2019 -0.0745 -0.1169
  196POPE   D2A 2213  11.182   4.484   5.345  0.0509  0.0316  0.0649
  196POPE   C3A 2214  11.392   4.589   4.927 -0.1973  0.0883  0.2709
  196POPE   C4A 2215  11.725   4.571   4.443 -0.0959  0.2159 -0.0928
  196POPE   C1B 2216  12.206   4.772   5.719 -0.1183  0.2485  0.2808
  196POPE   C2B 2217  12.393   4.707   5.438  0.0678  0.1629  0.0258
  196POPE   C3B 2218  12.307   4.669   5.011 -0.3982 -0.3644 -0.0772
  196POPE   C4B 2219  12.184   4.728   4.572 -0.0849 -0.0763 -0.3173
  197POPC   NC3 2220   9.695   4.520   6.117  0.4348 -0.0860  0.1848
  197POPC   PO4 2221   9.465   4.150   6.119  0.0059 -0.2832  0.0893
  197POPC   GL1 2222   9.403   4.155   5.601  0.1765 -0.0536 -0.2954
  197POPC   GL2 2223   9.625   4.338   5.628  0.0545  0.2089  0.1147
  197POPC   C1A 2224   9.295   4.270   5.205  0.0565 -0.0964 -0.2013
  197POPC   D2A 2225   9.416   4.225   4.721  0.3624 -0.2084  0.0422
  197POPC   C3A 2226   9.496   3.977   4.392  0.0209 -0.0016  0.3651
  197POPC   C4A 2227   9.784   3.608   4.464 -0.0764  0.1370  0.3552
  197POPC   C1B 2228   9.832   4.140   5.246 -0.2283  0.1843  0.0653
  197POPC   C2B 2229   9.864   4.015   4.829 -0.1712 -0.1815  0.1150
  197POPC   C3B 2230   9.990   4.170   4.502 -0.3349 -0.3393  0.0283
  197POPC   C4B 2231   9.694   4.423   4.184 -0.1391 -0.2155 -0.1215
  198POSM   NC3 2232   3.666  11.886   6.538 -0.3902 -0.2126 -0.0796
  198POSM   PO4 2233   4.049  11.881   6.322  0.0439  0.0991 -0.1618
  198POSM   AM1 2234   3.919  11.824   5.941 -0.1209  0.3218 -0.2112
  198POSM   AM2 2235   4.134  11.899   5.831 -0.1452 -0.0413 -0.0929
  198POSM   T1A 2236   3.738  11.746   5.512  0.1841  0.1576  0.2305
  198POSM   C2A 2237   3.729  11.772   5.141  0.1235 -0.0811 -0.0430
  198POSM   C3A 2238   3.565  11.523   4.859 -0.3073  0.2599 -0.0989
  198POSM   C1B 2239   4.254  11.843   5.384 -0.2887 -0.2410 -0.1813
  198POSM   D2B 2240   4.277  11.793   4.925 -0.0633  0.0748  0.0115
  198POSM   C3B 2241   3.898  11.862   4.708 -0.0597 -0.1626  0.1156
  198POSM   C4B 2242   3.597  11.838   4.355  0.1387  0.0153  0.2383
  199POSM   NC3 2243   6.752  13.275   6.197  0.1452  0.0477  0.1229
  199POSM   PO4 2244   6.501  13.531   6.069  0.3436  0.3596  0.0093
  199POSM   AM1 2245   6.063  13.543   5.866 -0.0155 -0.2369 -0.1323
  199POSM   AM2 2246   5.889  13.323   5.813  0.1342  0.3446  0.0881
  199POSM   T1A 2247   6.094  13.471   5.406  0.3367 -0.1825  0.1324
  199POSM   C2A 2248   5.980  13.287   4.970  0.2851 -0.1963 -0.0374
  199POSM   C3A 2249   5.772  13.088   4.656 -0.2090 -0.0685 -0.2368
  199POSM   C1B 2250   5.712  13.148   5.469 -0.2324  0.2763  0.0784
  199POSM   D2B 2251   5.519  13.154   5.084 -0.1532  0.1913 -0.2128
  199POSM   C3B 2252   5.337  13.328   4.632  0.1326 -0.0736  0.2197
  199POSM   C4B 2253   5.313  13.654   4.271  0.0571 -0.2450  0.1013
  200POSM   NC3 2254   4.763   4.209   6.542 -0.2913  0.0876 -0.1133
  200POSM   PO4 2255   4.721   3.829   6.433 -0.1808  0.1932 -0.2807
  200POSM   AM1 2256   4.607   3.824   5.953  0.0274  0.0382  0.1187
  200POSM   AM2 2257   4.749   4.026   5.825 -0.1670  0.0661 -0.0696
  200POSM   T1A 2258   4.464   3.442   5.708  0.0722  0.1665  0.1411
  200POSM   C2A 2259   4.329   3.230   5.317  0.0348 -0.0503 -0.1225
  200POSM   C3A 2260   4.281   3.092   4.834 -0.1657 -0.1423  0.1285
  200POSM   C1B 2261   5.102   4.230   5.678  0.0863  0.1801  0.1184
  200POSM   D2B 2262   5.430   4.141   5.366  0.2597  0.3882  0.0841
  200POSM   C3B 2263   5.575   4.242   4.908 -0.1173 -0.4941  0.1414
  200POSM   C4B 2264   5.757   4.315   4.474 -0.1127 -0.0124 -0.1284
  201CHOL   ROH 2265   7.341   2.318   5.691  0.2927 -0.2153 -0.1337
  201CHOL    R1 2266   7.360   2.328   5.409  0.1936 -0.1313 -0.1367
  201CHOL    R2 2267   7.165   2.226   5.243  0.1927 -0.1795 -0.0928
  201CHOL    R3 2268   7.171   2.476   5.136  0.0332 -0.1513 -0.0410
  201CHOL    R4 2269   7.115   2.297   4.909  0.5862 -0.2116 -0.1634
  201CHOL    R5 2270   7.275   2.445   4.922  0.3920 -0.0008  0.0976
  201CHOL    C1 2271   7.091   2.573   4.613  0.6656 -0.2038 -0.1559
  201CHOL    C2 2272   7.007   2.621   4.298  0.0683 -0.2258 -0.3318
  202POPS   CNO 2273  11.769  13.043   6.306 -0.2034 -0.0294 -0.0997
  202POPS   PO4 2274  11.694  12.749   6.010  0.1275 -0.0009  0.3181
  202POPS   GL1 2275  11.650  12.701   5.540  0.1310 -0.0215 -0.0038
  202POPS   GL2 2276  11.741  12.414   5.581  0.2509 -0.0638  0.2322
  202POPS   C1A 2277  11.751  12.928   5.079  0.1753  0.2732 -0.1353
  202POPS   D2A 2278  11.532  13.005   4.759 -0.1083 -0.2433  0.0043
  202POPS   C3A 2279  11.830  13.102   4.537  0.1331 -0.2402  0.2408
  202POPS   C4A 2280  12.111  13.290   4.197  0.3830 -0.0792  0.3456
  202POPS   C1B 2281  12.037  12.187   5.375  0.0218  0.4937 -0.1163
  202POPS   C2B 2282  12.146  12.160   4.911  0.1869  0.1313 -0.0021
  202POPS   C3B 2283  12.122  11.760   4.579 -0.2411 -0.1625  0.0999
  202POPS   C4B 2284  12.341  11.542   4.278  0.0039  0.1697  0.2247
  203POPE   NH3 2285  14.417   7.913   6.314  0.0042  0.0517 -0.0771
  203POPE   PO4 2286  14.673   7.757   6.068  0.2479 -0.1569  0.1683
  203POPE   GL1 2287  14.927   7.829   5.586 -0.0435  0.1205 -0.2492
  203POPE   GL2 2288  15.124   7.457   5.523  0.1707 -0.1236 -0.0573
  203POPE   C1A 2289  14.905   7.822   5.211 -0.0260 -0.1473 -0.0105
  203POPE   D2A 2290  15.050   7.951   4.893  0.1779  0.2085 -0.0636
  203POPE   C3A 2291  14.878   7.841   4.551 -0.1690 -0.3192  0.0022
  203POPE   C4A 2292  14.877   7.577   4.190 -0.0625 -0.0359 -0.1144
  203POPE   C1B 2293  15.135   7.455   5.057 -0.1495  0.1907  0.0302
  203POPE   C2B 2294  15.113   7.406   4.641  0.0187 -0.1144 -0.2300
  203POPE   C3B 2295  15.174   7.152   4.360  0.2226  0.1187 -0.0379
  203POPE   C4B 2296  15.191   7.139   4.012  0.4630  0.0580  0.0193
  204CHOL   ROH 2297  10.611  14.834   5.850  0.1785 -0.0878  0.3837
  204CHOL    R1 2298  10.606  14.866   5.569 -0.1357 -0.3168  0.3577
  204CHOL    R2 2299  10.802  15.004   5.431 -0.6086  0.1245  0.0956
  204CHOL    R3 2300  10.819  14.773   5.289 -0.0916  0.0416  0.2667
  204CHOL    R4 2301  10.956  14.971   5.123 -0.7521  0.3103  0.0018
  204CHOL    R5 2302  10.793  14.841   5.061 -0.4607 -0.1949  0.2247
  204CHOL    C1 2303  11.060  14.735   4.810 -0.3503  0.3406  0.1078
  204CHOL    C2 2304  11.523  14.821   4.740 -0.0247 -0.1075  0.0495
  205POPC   NC3 2305  10.893   4.356   6.738  0.2753  0.3561  0.1555
  205POPC   PO4 2306  10.666   4.082   6.479  0.2324 -0.0271 -0.0521
  205POPC   GL1 2307  10.488   3.914   5.987  0.3910 -0.1359  0.2003
  205POPC   GL2 2308  10.114   3.671   5.876 -0.1581 -0.0934  0.0397
  205POPC   C1A 2309  10.438   3.840   5.509 -0.2883 -0.1189 -0.0858
  205POPC   D2A 2310  10.274   3.971   5.144  0.1118  0.2278  0.1327
  205POPC   C3A 2311  10.480   4.140   4.756  0.2367  0.0125 -0.1375
  205POPC   C4A 2312  10.791   4.218   4.481  0.1601 -0.2390 -0.1165
  205POPC   C1B 2313   9.951   3.668   5.453 -0.1977  0.2502  0.1602
  205POPC   C2B 2314   9.886   3.609   5.133  0.0115 -0.0135  0.0968
  205POPC   C3B 2315   9.842   3.332   4.864  0.0460 -0.2545  0.0895
  205POPC   C4B 2316   9.899   2.874   4.750  0.1451 -0.0895 -0.0624
  206POPE   NH3 2317   6.893  14.749   6.372 -0.1917  0.1746  0.2284
  206POPE   PO4 2318   7.107  14.464   6.591 -0.2545  0.2217 -0.0687
  206POPE   GL1 2319   7.407  14.691   6.258  0.3881  0.0449  0.0643
  206POPE   GL2 2320   7.426  14.974   6.049  0.0919  0.2502 -0.0212
  206POPE   C1A 2321   7.508  14.433   5.894  0.0225  0.1378  0.0036
  206POPE   D2A 2322   7.806  14.337   5.557 -0.1318  0.4945 -0.0476
  206POPE   C3A 2323   7.814  14.191   5.188  0.1131  0.2699  0.2526
  206POPE   C4A 2324   7.987  14.311   4.851  0.1358  0.0431 -0.0776
  206POPE   C1B 2325   7.621  14.841   5.638  0.0342 -0.2558 -0.0304
  206POPE   C2B 2326   7.658  14.977   5.228  0.0589  0.1586 -0.1581
  206POPE   C3B 2327   7.703  15.168   4.892 -0.0166  0.0813 -0.1054
  206POPE   C4B 2328   7.786  15.555   4.655  0.2834 -0.1476  0.2238
  207POSM   NC3 2329  13.525   5.991   6.885  0.0980  0.1458 -0.5216
  207POSM   PO4 2330  13.471   6.125   6.515 -0.1331 -0.0410  0.2371
  207POSM   AM1 2331  13.534   6.286   6.101 -0.0948  0.1123 -0.2409
  207POSM   AM2 2332  13.793   6.028   6.076  0.0414  0.2208  0.2116
  207POSM   T1A 2333  13.389   6.113   5.628  0.2609  0.0361  0.2631
  207POSM   C2A 2334  13.519   6.111   5.254  0.2752  0.0122 -0.0455
  207POSM   C3A 2335  13.646   6.157   4.765 -0.0114 -0.1040 -0.1358
  207POSM   C1B 2336  13.602   5.671   6.032 -0.1041 -0.0124  0.4840
  207POSM   D2B 2337  13.397   5.466   5.616 -0.0202  0.2307 -0.2363
  207POSM   C3B 2338  13.265   5.693   5.362  0.1486  0.0852  0.4714
  207POSM   C4B 2339  13.066   5.905   4.991  0.0199  0.0890  0.0904
  208POPC   NC3 2340  10.567  14.611   6.263 -0.1750  0.0491 -0.1152
  208POPC   PO4 2341  11.038  14.557   6.070  0.0032 -0.1899 -0.0707
  208POPC   GL1 2342  11.061  14.768   5.717 -0.0604  0.2139  0.3377
  208POPC   GL2 2343  10.967  14.440   5.568 -0.3273  0.1814  0.1686
  208POPC   C1A 2344  11.298  15.056   5.479 -0.2872  0.1293 -0.3305
  208POPC   D2A 2345  11.297  15.305   5.160 -0.1500 -0.2131 -0.0378
  208POPC   C3A 2346  11.331  15.294   4.748 -0.0399  0.1180 -0.0144
  208POPC   C4A 2347  11.265  15.535   4.471  0.0510 -0.0216  0.1260
  208POPC   C1B 2348  10.933  14.330   5.253  0.0030 -0.0243  0.2804
  208POPC   C2B 2349  10.771  14.376   4.884  0.1265  0.2149 -0.0338
  208POPC   C3B 2350  10.605  14.306   4.478 -0.0419 -0.0255  0.1498
  208POPC   C4B 2351  10.377  13.940   4.185  0.2522 -0.0049 -0.3589
  209CHOL   ROH 2352   3.404   9.449   5.994 -0.2374 -0.0422 -0.0228
  209CHOL    R1 2353   3.397   9.575   5.741 -0.4330  0.1244  0.0617
  209CHOL    R2 2354   3.481   9.449   5.510  0.0317  0.4992  0.0139
  209CHOL    R3 2355   3.233   9.517   5.421 -0.1156 -0.0912 -0.0649
  209CHOL    R4 2356   3.407   9.549   5.187 -0.0719  0.4869  0.0332
  209CHOL    R5 2357   3.271   9.698   5.269 -0.5078  0.1012  0.0560
  209CHOL    C1 2358   3.131   9.670   4.916 -0.2705 -0.0745 -0.0295
  209CHOL    C2 2359   3.142   9.620   4.500 -0.0392 -0.0468 -0.0085
  210POPS   CNO 2360  14.376  11.599   6.591  0.3324  0.0255 -0.4074
  210POPS   PO4 2361  14.349  11.182   6.588  0.1010 -0.1387  0.0555
  210POPS   GL1 2362  14.279  11.121   6.000  0.1117 -0.0081 -0.1729
  210POPS   GL2 2363  14.223  11.485   6.115 -0.4150 -0.2083  0.0448
  210POPS   C1A 2364  14.510  11.014   5.689 -0.3450  0.0933  0.1571
  210POPS   D2A 2365  14.783  11.264   5.426  0.0879 -0.2577 -0.1715
  210POPS   C3A 2366  14.883  11.178   5.065  0.0627 -0.0771  0.1142
  210POPS   C4A 2367  15.041  10.918   4.616  0.2643 -0.1225 -0.0854
  210POPS   C1B 2368  14.433  11.706   5.671  0.1825 -0.1180  0.0431
  210POPS   C2B 2369  14.493  11.880   5.336 -0.3425 -0.0437 -0.2917
  210POPS   C3B 2370  14.683  12.115   5.077 -0.2066  0.0278  0.0283
  210POPS   C4B 2371  14.843  12.236   4.789  0.0482  0.0586  0.1091
  211POPE   NH3 2372   9.184  14.667   6.150 -0.0717 -0.0552  0.0806
  211POPE   PO4 2373   9.538  14.769   6.279 -0.1368  0.1918 -0.1322
  211POPE   GL1 2374   9.751  14.601   5.898  0.0892 -0.2422 -0.1504
  211POPE   GL2 2375  10.060  14.521   5.739 -0.3080  0.0727 -0.2297
  211POPE   C1A 2376   9.549  14.656   5.525  0.2490 -0.0172 -0.0357
  211POPE   D2A 2377   9.431  14.843   5.086 -0.3111 -0.0697 -0.0084
  211POPE   C3A 2378   9.010  14.897   4.971 -0.4042  0.2483 -0.1488
  211POPE   C4A 2379   8.652  14.686   5.219 -0.0559 -0.2631  0.1294
  211POPE   C1B 2380   9.956  14.369   5.434 -0.0840  0.2374 -0.0437
  211POPE   C2B 2381   9.805  14.041   5.099 -0.1345  0.1156  0.1590
  211POPE   C3B 2382   9.947  13.948   4.708  0.1659  0.0690  0.2616
  211POPE   C4B 2383  10.020  13.590   4.421  0.1227  0.3242  0.1014
  212POSM   NC3 2384   3.722   4.743   6.623  0.0405 -0.2228  0.0620
  212POSM   PO4 2385   3.407   4.821   6.397  0.1862  0.0611  0.1245
  212POSM   AM1 2386   3.519   4.702   6.073  0.3376  0.0966  0.1069
  212POSM   AM2 2387   3.705   4.409   6.002 -0.1032 -0.2315  0.2055
  212POSM   T1A 2388   3.562   4.875   5.744  0.1131  0.1284  0.1807
  212POSM   C2A 2389   3.487   4.885   5.302  0.0087 -0.2228  0.1521
  212POSM   C3A 2390   3.664   4.883   4.972  0.3214 -0.0005  0.0983
  212POSM   C1B 2391   3.692   4.409   5.454  0.0695 -0.3594 -0.0662
  212POSM   D2B 2392   3.653   4.335   5.096 -0.0549  0.0388 -0.0284
  212POSM   C3B 2393   3.853   4.435   4.771 -0.0573 -0.1309  0.0694
  212POSM   C4B 2394   4.140   4.744   4.458 -0.0049  0.0918  0.0731
  213POPE   NH3 2395   2.697   6.065   6.150 -0.1262 -0.1026  0.2892
  213POPE   PO4 2396   2.825   6.433   5.958 -0.3247  0.2773  0.0555
  213POPE   GL1 2397   2.661   6.765   5.857  0.0840 -0.0386  0.0712
  213POPE   GL2 2398   2.881   7.007   5.939 -0.4763  0.0880  0.0010
  213POPE   C1A 2399   2.536   6.949   5.481 -0.2843 -0.1050 -0.1408
  213POPE   D2A 2400   2.406   7.028   5.076 -0.1217 -0.0833  0.2183
  213POPE   C3A 2401   2.527   7.175   4.709  0.2079  0.3902  0.0669
  213POPE   C4A 2402   2.647   7.107   4.316  0.2471  0.0886  0.2447
  213POPE   C1B 2403   2.972   7.299   5.542 -0.0495  0.0213 -0.3976
  213POPE   C2B 2404   2.870   7.340   5.044  0.0742 -0.0209 -0.1992
  213POPE   C3B 2405   3.031   7.361   4.599  0.0572 -0.1217 -0.0960
  213POPE   C4B 2406   3.359   7.406   4.337 -0.0036  0.0021  0.2398
  214POPE   NH3 2407   5.650  13.516   6.179 -0.1361 -0.0245 -0.1721
  214POPE   PO4 2408   5.814  13.927   6.263  0.0613 -0.0429  0.1306
  214POPE   GL1 2409   5.665  13.802   5.771 -0.0120  0.0411  0.1038
  214POPE   GL2 2410   5.928  13.924   5.518 -0.1110  0.0390  0.2379
  214POPE   C1A 2411   5.668  13.609   5.223 -0.0334  0.1950 -0.2670
  214POPE   D2A 2412   5.581  13.764   4.812 -0.1432  0.4176  0.0829
  214POPE   C3A 2413   5.732  13.450   4.399  0.0980 -0.3520  0.0050
  214POPE   C4A 2414   5.590  13.248   4.063 -0.1781 -0.0321 -0.1601
  214POPE   C1B 2415   6.135  14.336   5.325  0.3060  0.0774 -0.1125
  214POPE   C2B 2416   6.192  14.655   5.079 -0.1550  0.0225  0.3240
  214POPE   C3B 2417   6.343  14.726   4.675 -0.0735  0.2639 -0.1544
  214POPE   C4B 2418   6.383  14.572   4.243  0.4289 -0.1149 -0.2753
  215POPE   NH3 2419   2.649   6.915   6.437 -0.0125 -0.3971 -0.0744
  215POPE   PO4 2420   2.778   7.336   6.371  0.0305  0.0946  0.4620
  215POPE   GL1 2421   3.032   7.541   6.055 -0.0988  0.1640 -0.2209
  215POPE   GL2 2422   2.888   7.739   6.061 -0.2206 -0.1312  0.1661
  215POPE   C1A 2423   3.276   7.694   5.717  0.3484 -0.0884 -0.0443
  215POPE   D2A 2424   3.194   7.696   5.324 -0.2123  0.1698 -0.0224
  215POPE   C3A 2425   3.336   7.511   4.957  0.0819  0.1637  0.1652
  215POPE   C4A 2426   3.691   7.498   4.668 -0.1249 -0.0532  0.5600
  215POPE   C1B 2427   2.792   7.812   5.671 -0.3034  0.0046  0.1737
  215POPE   C2B 2428   2.777   7.914   5.221  0.2157 -0.1695  0.1791
  215POPE   C3B 2429   2.850   7.836   4.892 -0.1680 -0.0686  0.0171
  215POPE   C4B 2430   2.636   7.784   4.504  0.3667 -0.1481 -0.0466
  216POPS   CNO 2431   3.486  11.547   6.169 -0.1042  0.0931  0.0279
  216POPS   PO4 2432   3.169  11.350   6.285 -0.2534 -0.0492 -0.2642
  216POPS   GL1 2433   3.064  11.504   5.874  0.3698  0.1844 -0.1453
  216POPS   GL2 2434   3.170  11.842   5.850  0.0361 -0.1846 -0.2997
  216POPS   C1A 2435   2.857  11.400   5.607  0.0097 -0.1239  0.3611
  216POPS   D2A 2436   2.779  11.040   5.328  0.1375  0.1031 -0.1508
  216POPS   C3A 2437   2.745  10.944   4.855 -0.0104  0.0731  0.1967
  216POPS   C4A 2438   2.789  10.905   4.420 -0.1703  0.1674 -0.0636
  216POPS   C1B 2439   3.178  11.763   5.438 -0.0695 -0.0400  0.0234
  216POPS   C2B 2440   2.986  11.569   5.077 -0.2535  0.1088  0.1892
  216POPS   C3B 2441   3.067  11.284   4.809  0.0463 -0.2916  0.0536
  216POPS   C4B 2442   3.343  11.384   4.399 -0.2104  0.0301  0.0330
  217POPC   NC3 2443   2.443   6.628   6.873 -0.0773  0.1731 -0.1397
  217POPC   PO4 2444   2.189   6.928   6.655 -0.0768 -0.3182  0.1429
  217POPC   GL1 2445   1.908   6.788   6.244 -0.0455 -0.1169 -0.3310
  217POPC   GL2 2446   2.161   6.940   6.021 -0.4611  0.0275 -0.1938
  217POPC   C1A 2447   1.668   6.763   5.849  0.2048  0.4618 -0.0461
  217POPC   D2A 2448   1.586   6.859   5.365  0.0148 -0.0692  0.1304
  217POPC   C3A 2449   1.497   6.586   5.059 -0.1249 -0.0857 -0.2750
  217POPC   C4A 2450   1.310   6.322   4.737 -0.2897  0.1021 -0.0280
  217POPC   C1B 2451   1.996   7.082   5.656  0.0314 -0.3660  0.0119
  217POPC   C2B 2452   1.949   7.121   5.103  0.1618  0.1627 -0.0886
  217POPC   C3B 2453   1.651   7.017   4.767 -0.0331  0.2928  0.0884
  217POPC   C4B 2454   1.378   6.873   4.549  0.3596 -0.1543 -0.3036
  218POSM   NC3 2455   3.292   3.750   6.436  0.2347  0.1056  0.0225
  218POSM   PO4 2456   3.649   3.881   6.197 -0.2171  0.1925 -0.0387
  218POSM   AM1 2457   3.749   3.808   5.829 -0.1899  0.0522  0.1104
  218POSM   AM2 2458   3.560   4.045   5.688 -0.0887  0.1586  0.1511
  218POSM   T1A 2459   4.137   3.797   5.604 -0.0608 -0.0210 -0.1745
  218POSM   C2A 2460   4.420   3.802   5.294  0.1012  0.1413 -0.2933
  218POSM   C3A 2461   4.625   3.542   5.060 -0.1215 -0.4113  0.1539
  218POSM   C1B 2462   3.733   3.905   5.350  0.1883  0.0236 -0.1822
  218POSM   D2B 2463   3.601   3.808   4.989 -0.3172 -0.2045 -0.0716
  218POSM   C3B 2464   3.646   3.962   4.602 -0.3047  0.0825 -0.0589
  218POSM   C4B 2465   3.477   4.034   4.108 -0.4518  0.1312  0.0872
  219POSM   NC3 2466  11.108  13.861   6.823  0.2533 -0.1502 -0.1412
  219POSM   PO4 2467  11.299  14.202   6.527  0.2240 -0.1365  0.0088
  219POSM   AM1 2468  11.432  14.252   6.063 -0.0741  0.0645  0.1361
  219POSM   AM2 2469  11.716  14.132   5.878  0.2469 -0.3747  0.2034
  219POSM   T1A 2470  11.496  14.541   5.777  0.0820  0.0478  0.2752
  219POSM   C2A 2471  11.455  14.642   5.273  0.2107 -0.3137  0.3276
  219POSM   C3A 2472  11.857  14.639   5.161  0.0191  0.2918  0.3825
  219POSM   C1B 2473  11.401  14.187   5.425  0.0221  0.1566 -0.2907
  219POSM   D2B 2474  11.397  14.337   4.897  0.0836  0.0978  0.0189
  219POSM   C3B 2475  11.577  14.431   4.478  0.2084 -0.2978  0.0944
  219POSM   C4B 2476  11.532  14.820   4.197  0.3199 -0.1458  0.2556
  220CHOL   ROH 2477   9.250  14.368   5.739  0.1205  0.2305 -0.0907
  220CHOL    R1 2478   9.186  14.253   5.488  0.0063  0.2524 -0.0729
  220CHOL    R2 2479   9.177  14.401   5.255  0.1367  0.2288 -0.0962
  220CHOL    R3 2480   9.351  14.212   5.167 -0.0392  0.0532 -0.0714
  220CHOL    R4 2481   9.275  14.362   4.926  0.0409  0.0402 -0.1032
  220CHOL    R5 2482   9.264  14.146   4.953 -0.1359  0.0585 -0.0335
  220CHOL    C1 2483   9.496  14.162   4.652 -0.1799 -0.2344 -0.0840
  220CHOL    C2 2484   9.636  13.975   4.304  0.2171  0.0364  0.1958
  221POPC   NC3 2485  15.411   6.171   6.315  0.0718  0.3384  0.1656
  221POPC   PO4 2486  15.853   6.270   6.250  0.0346  0.3915 -0.0024
  221POPC   GL1 2487  16.076   6.396   5.853 -0.2666  0.0946 -0.3076
  221POPC   GL2 2488  15.865   6.539   5.678  0.1762 -0.1683  0.3394
  221POPC   C1A 2489  16.246   6.214   5.578  0.1550  0.1900 -0.1361
  221POPC   D2A 2490  16.401   6.386   5.223 -0.1948  0.2020 -0.3167
  221POPC   C3A 2491  16.585   6.263   4.879  0.0338  0.2898 -0.0838
  221POPC   C4A 2492  16.833   5.866   4.712  0.0379 -0.0009  0.3135
  221POPC   C1B 2493  15.861   6.749   5.331  0.1220 -0.0956 -0.0667
  221POPC   C2B 2494  15.868   6.737   4.814 -0.0761 -0.2495  0.1672
  221POPC   C3B 2495  15.780   6.797   4.439 -0.1252 -0.0983  0.0458
  221POPC   C4B 2496  15.685   7.071   4.028  0.0233  0.0625  0.3296
  222POPE   NH3 2497   2.413   9.136   6.262  0.1347  0.0315 -0.0704
  222POPE   PO4 2498   2.469   8.775   6.409  0.1194  0.0492  0.1754
  222POPE   GL1 2499   2.437   8.691   6.020  0.2565 -0.0892 -0.2265
  222POPE   GL2 2500   2.178   8.549   5.915 -0.2872  0.2127 -0.1332
  222POPE   C1A 2501   2.561   8.960   5.686 -0.1273  0.1204  0.0149
  222POPE   D2A 2502   2.541   9.048   5.267  0.0341 -0.2391 -0.0509
  222POPE   C3A 2503   2.343   9.308   5.008 -0.0723 -0.1807  0.0417
  222POPE   C4A 2504   2.096   9.568   4.770  0.2958 -0.2683  0.2671
  222POPE   C1B 2505   2.237   8.623   5.511 -0.0107 -0.0535 -0.0031
  222POPE   C2B 2506   2.273   8.568   4.994 -0.0963  0.0197 -0.3179
  222POPE   C3B 2507   2.483   8.957   4.721  0.0274 -0.1309  0.0315
  222POPE   C4B 2508   2.227   9.202   4.409  0.1970  0.1999 -0.1385
  223POPE   NH3 2509   7.450   2.415   6.205  0.1279 -0.2083  0.2755
  223POPE   PO4 2510   7.860   2.359   6.407 -0.1423 -0.0477 -0.4212
  223POPE   GL1 2511   7.889   2.303   5.966 -0.1664 -0.1413 -0.2328
  223POPE   GL2 2512   7.637   2.024   5.941  0.2339  0.0249  0.1521
  223POPE   C1A 2513   7.814   2.502   5.598  0.3725  0.1813  0.1036
  223POPE   D2A 2514   7.678   2.714   5.169  0.1769  0.2896  0.1315
  223POPE   C3A 2515   8.020   2.948   4.950  0.0725 -0.0270  0.2231
  223POPE   C4A 2516   7.961   3.189   4.603  0.2497  0.0843  0.1794
  223POPE   C1B 2517   7.409   1.811   5.527 -0.0783 -0.4425 -0.1096
  223POPE   C2B 2518   7.485   1.801   5.148  0.3666 -0.1245 -0.4893
  223POPE   C3B 2519   7.353   1.909   4.762  0.1494  0.1164  0.0492
  223POPE   C4B 2520   6.942   2.076   4.523  0.0200 -0.0508  0.1335
  224POPS   CNO 2521  14.144   5.670   6.267 -0.1463 -0.0334 -0.0156
  224POPS   PO4 2522  14.454   5.907   6.514  0.0722  0.2454  0.1244
  224POPS   GL1 2523  14.428   6.144   6.130  0.0333 -0.2006  0.2615
  224POPS   GL2 2524  14.572   6.239   5.963 -0.0312 -0.1744 -0.1780
  224POPS   C1A 2525  14.208   6.069   5.743 -0.4109  0.1485  0.1228
  224POPS   D2A 2526  13.800   5.877   5.615  0.0892 -0.0407 -0.1703
  224POPS   C3A 2527  13.790   5.649   5.334  0.0923  0.0084  0.1492
  224POPS   C4A 2528  13.541   5.670   4.913 -0.0515 -0.0456  0.2828
  224POPS   C1B 2529  14.731   6.050   5.539 -0.1993 -0.0876  0.3616
  224POPS   C2B 2530  14.621   6.096   5.117 -0.1399  0.1280  0.1811
  224POPS   C3B 2531  14.729   6.060   4.678  0.0294 -0.0512  0.3367
  224POPS   C4B 2532  14.982   6.264   4.443 -0.1602 -0.0160  0.3039
  225POPS   CNO 2533   8.958   0.911   6.063 -0.0421  0.2140 -0.2163
  225POPS   PO4 2534   9.160   1.263   6.120 -0.0277 -0.0738  0.1609
  225POPS   GL1 2535   9.199   1.625   5.924 -0.0226  0.0897  0.1048
  225POPS   GL2 2536   8.952   1.676   5.744  0.0593  0.0702 -0.0705
  225POPS   C1A 2537   9.421   1.766   5.554  0.3108  0.0509 -0.3043
  225POPS   D2A 2538   9.733   1.870   5.279  0.1463  0.1657 -0.2295
  225POPS   C3A 2539   9.531   1.947   4.889 -0.0580 -0.0782 -0.1194
  225POPS   C4A 2540   9.493   2.145   4.567 -0.1606  0.2306 -0.4299
  225POPS   C1B 2541   9.003   1.788   5.260  0.0608  0.3740 -0.1578
  225POPS   C2B 2542   9.013   1.972   4.931 -0.1192  0.2896  0.0727
  225POPS   C3B 2543   9.088   2.328   4.817  0.0959 -0.0501  0.2008
  225POPS   C4B 2544   8.944   2.711   4.831  0.0287 -0.3677  0.1098
  226CHOL   ROH 2545   2.699   6.000   5.615  0.1217 -0.2605 -0.1311
  226CHOL    R1 2546   2.534   5.900   5.407 -0.1895 -0.0796  0.0223
  226CHOL    R2 2547   2.317   6.040   5.309  0.0880  0.3456 -0.0334
  226CHOL    R3 2548   2.442   6.002   5.071 -0.0643 -0.1730 -0.0415
  226CHOL    R4 2549   2.190   6.135   5.002  0.1698  0.2341 -0.1015
  226CHOL    R5 2550   2.265   5.948   4.919 -0.2204 -0.0104  0.0828
  226CHOL    C1 2551   2.233   6.155   4.600  0.0744 -0.3177 -0.1487
  226CHOL    C2 2552   2.309   6.124   4.200 -0.1518  0.0197 -0.1151
  227POPE   NH3 2553  14.105  12.440   6.335  0.1737 -0.0763 -0.1630
  227POPE   PO4 2554  13.738  12.223   6.298 -0.3430  0.0419  0.2108
  227POPE   GL1 2555  13.520  12.172   5.810 -0.0622  0.0523 -0.2085
  227POPE   GL2 2556  13.350  12.461   5.814 -0.4985  0.0080  0.4181
  227POPE   C1A 2557  13.378  11.936   5.463  0.0713 -0.1801  0.1223
  227POPE   D2A 2558  13.496  11.625   5.087 -0.2043  0.0446 -0.0250
  227POPE   C3A 2559  13.423  11.725   4.688 -0.1654  0.0389 -0.2272
  227POPE   C4A 2560  13.354  11.884   4.309 -0.0660 -0.1551 -0.1324
  227POPE   C1B 2561  13.428  12.413   5.377  0.3093 -0.1287  0.2201
  227POPE   C2B 2562  13.427  12.603   4.906 -0.0755 -0.2365 -0.0992
  227POPE   C3B 2563  13.479  12.752   4.473 -0.0406 -0.0852 -0.3759
  227POPE   C4B 2564  13.317  13.227   4.406  0.1633  0.1544 -0.0061
  228POPC   NC3 2565  14.359   9.734   6.150 -0.0625 -0.1094 -0.1801
  228POPC   PO4 2566  14.735   9.936   6.218 -0.0723  0.1743 -0.0396
  228POPC   GL1 2567  14.717   9.908   5.868  0.1014 -0.0266 -0.0951
  228POPC   GL2 2568  14.714  10.096   5.578 -0.1882  0.0458  0.1625
  228POPC   C1A 2569  14.918   9.664   5.503  0.3565 -0.0502  0.0888
  228POPC   D2A 2570  15.225   9.774   5.242 -0.1921  0.1835  0.1345
  228POPC   C3A 2571  15.444  10.065   4.950 -0.0023 -0.2846  0.1364
  228POPC   C4A 2572  15.598  10.140   4.576  0.1002  0.2672 -0.2741
  228POPC   C1B 2573  14.419  10.158   5.269 -0.0588  0.1092 -0.1855
  228POPC   C2B 2574  14.447  10.277   4.834 -0.0930  0.0078 -0.1329
  228POPC   C3B 2575  14.738  10.362   4.550  0.0957 -0.0051  0.2264
  228POPC   C4B 2576  14.861  10.720   4.217 -0.1312  0.2178 -0.0597
  229POPC   NC3 2577  14.910   9.144   6.358 -0.1336  0.0323  0.0041
  229POPC   PO4 2578  14.507   9.264   6.124  0.0196  0.1524 -0.0951
  229POPC   GL1 2579  14.745   9.219   5.767 -0.0666  0.0159 -0.0702
  229POPC   GL2 2580  15.035   9.141   5.846  0.0075 -0.2547  0.0298
  229POPC   C1A 2581  14.691   9.210   5.455 -0.1332 -0.2937 -0.0819
  229POPC   D2A 2582  14.878   9.322   5.037  0.0110 -0.1768  0.4913
  229POPC   C3A 2583  14.676   9.550   4.662 -0.0617  0.2394 -0.2060
  229POPC   C4A 2584  14.358   9.395   4.267 -0.0826 -0.0919 -0.0043
  229POPC   C1B 2585  15.243   9.021   5.450  0.2384 -0.1353 -0.1893
  229POPC   C2B 2586  15.255   8.890   5.032 -0.0101  0.1030  0.2337
  229POPC   C3B 2587  15.040   8.889   4.721  0.3711  0.1387 -0.2139
  229POPC   C4B 2588  14.621   9.035   4.581  0.0082 -0.2388 -0.1499
  230CHOL   ROH 2589   7.026  14.472   5.886  0.3290  0.1411  0.0280
  230CHOL    R1 2590   7.102  14.425   5.617  0.3298  0.1007  0.0340
  230CHOL    R2 2591   7.045  14.603   5.413  0.0829 -0.0561 -0.0395
  230CHOL    R3 2592   7.313  14.588   5.369  0.0953  0.2303 -0.0815
  230CHOL    R4 2593   7.196  14.621   5.103  0.0160  0.0054 -0.0692
  230CHOL    R5 2594   7.333  14.464   5.166  0.2039  0.1822 -0.0401
  230CHOL    C1 2595   7.535  14.618   4.881 -0.0112  0.3101 -0.1259
  230CHOL    C2 2596   7.884  14.749   4.707  0.1447  0.2240 -0.0028
  231CHOL   ROH 2597   5.583   2.881   5.969 -0.0301  0.3429 -0.1734
  231CHOL    R1 2598   5.457   2.702   5.790  0.0086  0.1199  0.0203
  231CHOL    R2 2599   5.487   2.719   5.516 -0.2934  0.0626 -0.0195
  231CHOL    R3 2600   5.563   2.459   5.540  0.0589  0.1620 -0.0026
  231CHOL    R4 2601   5.534   2.503   5.251 -0.2791  0.0369  0.0039
  231CHOL    R5 2602   5.439   2.345   5.370  0.0301 -0.0493  0.1528
  231CHOL    C1 2603   5.632   2.132   5.119  0.0599  0.1152  0.0334
  231CHOL    C2 2604   5.379   1.863   4.926 -0.2479  0.0362  0.2229
  232POPE   NH3 2605  12.323  14.577   6.476  0.0272  0.0152  0.0854
  232POPE   PO4 2606  11.948  14.805   6.585  0.0283  0.3112 -0.2523
  232POPE   GL1 2607  11.951  14.705   6.138  0.1492  0.0373 -0.1466
  232POPE   GL2 2608  12.066  14.457   5.956 -0.1008 -0.0714  0.0976
  232POPE   C1A 2609  11.905  14.823   5.617 -0.0292  0.0155  0.1011
  232POPE   D2A 2610  12.190  14.943   5.334  0.3725 -0.4247  0.0090
  232POPE   C3A 2611  12.250  14.805   4.898 -0.0205  0.0538  0.1667
  232POPE   C4A 2612  12.635  14.905   4.628  0.3829  0.2111  0.1911
  232POPE   C1B 2613  12.011  14.313   5.503  0.2200 -0.2223  0.1565
  232POPE   C2B 2614  12.316  14.327   5.224  0.3567  0.1122  0.4479
  232POPE   C3B 2615  12.605  14.342   4.855 -0.1110  0.2028  0.2396
  232POPE   C4B 2616  13.046  14.177   4.671  0.2167  0.0251 -0.0409
  233POPS   CNO 2617   5.261   1.453   6.439 -0.0486 -0.0854 -0.0440
  233POPS   PO4 2618   5.691   1.296   6.512  0.3892  0.0110 -0.0291
  233POPS   GL1 2619   5.713   1.424   6.158 -0.0122 -0.2681  0.3058
  233POPS   GL2 2620   5.569   1.647   6.056 -0.1903  0.1333 -0.0614
  233POPS   C1A 2621   5.653   1.072   5.852  0.1665 -0.0560  0.4101
  233POPS   D2A 2622   5.839   1.071   5.516  0.0892  0.3561 -0.1237
  233POPS   C3A 2623   5.678   0.878   5.167  0.1209  0.1516  0.0141
  233POPS   C4A 2624   5.491   0.840   4.714 -0.3091  0.0385  0.2197
  233POPS   C1B 2625   5.656   1.942   5.681  0.1958  0.0417  0.2100
  233POPS   C2B 2626   5.376   1.876   5.475  0.0158  0.1092 -0.2670
  233POPS   C3B 2627   4.984   1.739   5.493  0.2946 -0.0972 -0.0031
  233POPS   C4B 2628   4.603   1.517   5.688 -0.0938  0.1272 -0.0290
  234POPE   NH3 2629  14.431  10.056   6.594  0.1036  0.1091 -0.1997
  234POPE   PO4 2630  14.221  10.371   6.382  0.4227  0.1228  0.0188
  234POPE   GL1 2631  14.352  10.284   6.043  0.1085 -0.0418 -0.0140
  234POPE   GL2 2632  14.219  10.056   5.809 -0.2256  0.2205  0.0861
  234POPE   C1A 2633  14.442  10.527   5.676 -0.1048  0.1226  0.0536
  234POPE   D2A 2634  14.224  10.576   5.198 -0.0348  0.1308  0.1424
  234POPE   C3A 2635  13.935  10.934   5.037  0.3242  0.0038  0.2645
  234POPE   C4A 2636  13.543  11.146   4.877  0.1373  0.2495  0.0809
  234POPE   C1B 2637  13.920  10.018   5.509  0.0493 -0.1487  0.0011
  234POPE   C2B 2638  13.786  10.153   5.225 -0.0149 -0.2485  0.1344
  234POPE   C3B 2639  13.852  10.222   4.858 -0.2192  0.2304 -0.1909
  234POPE   C4B 2640  13.951  10.531   4.729  0.4206 -0.0547  0.4163
  235CHOL   ROH 2641   2.377  11.459   5.703  0.1610  0.0345  0.1839
  235CHOL    R1 2642   2.322  11.473   5.426 -0.0656  0.1097  0.2297
  235CHOL    R2 2643   2.519  11.446   5.234 -0.1926  0.3127  0.0595
  235CHOL    R3 2644   2.354  11.253   5.138 -0.1438  0.2417  0.1203
  235CHOL    R4 2645   2.482  11.367   4.899 -0.1122  0.1298  0.0931
  235CHOL    R5 2646   2.267  11.345   4.934 -0.1121  0.1191  0.0551
  235CHOL    C1 2647   2.305  11.140   4.615 -0.0197 -0.0435  0.1697
  235CHOL    C2 2648   2.160  11.054   4.302  0.3972  0.0148 -0.1077
  236POPC   NC3 2649   4.509  11.964   6.251  0.1712  0.1002 -0.1409
  236POPC   PO4 2650   4.671  12.324   6.349 -0.0303 -0.1350  0.1356
  236POPC   GL1 2651   4.497  12.394   5.922  0.0433  0.1542 -0.2865
  236POPC   GL2 2652   4.270  12.563   5.889  0.0454 -0.0354  0.0964
  236POPC   C1A 2653   4.449  12.322   5.518  0.1601  0.1083  0.1670
  236POPC   D2A 2654   4.436  12.245   5.189 -0.0114  0.0007 -0.0880
  236POPC   C3A 2655   4.670  11.941   5.136 -0.1343 -0.0937  0.5177
  236POPC   C4A 2656   5.028  11.676   5.190  0.2229 -0.2038 -0.3051
  236POPC   C1B 2657   4.069  12.750   5.620  0.0373 -0.5196 -0.0679
  236POPC   C2B 2658   4.081  12.681   5.154  0.0049  0.0775 -0.0735
  236POPC   C3B 2659   4.089  12.764   4.768 -0.0404 -0.2203  0.1302
  236POPC   C4B 2660   4.080  12.720   4.348  0.0201 -0.0693 -0.1153
  237POPE   NH3 2661  11.046   3.190   6.075 -0.0463  0.0064 -0.0793
  237POPE   PO4 2662  11.494   3.055   6.188 -0.0827 -0.0144 -0.3264
  237POPE   GL1 2663  11.670   3.273   5.838 -0.1032  0.1385  0.1139
  237POPE   GL2 2664  11.348   3.470   5.747 -0.0230 -0.2027  0.0545
  237POPE   C1A 2665  11.945   3.626   5.705  0.1944  0.0307 -0.0783
  237POPE   D2A 2666  12.207   3.695   5.349  0.2271  0.1080 -0.1492
  237POPE   C3A 2667  12.232   4.130   5.310  0.2252 -0.3124 -0.1420
  237POPE   C4A 2668  11.924   4.483   5.328 -0.0363 -0.3950 -0.3622
  237POPE   C1B 2669  11.578   3.650   5.381  0.0232  0.2063  0.1079
  237POPE   C2B 2670  11.794   3.426   5.140  0.0034 -0.2670 -0.0141
  237POPE   C3B 2671  12.056   3.211   4.992  0.0048  0.1989  0.1538
  237POPE   C4B 2672  11.924   2.829   4.638  0.1839 -0.0947  0.1666
  238CHOL   ROH 2673   8.030  15.139   5.842  0.1368 -0.1174 -0.0013
  238CHOL    R1 2674   8.028  15.112   5.561  0.0214  0.0179 -0.0142
  238CHOL    R2 2675   8.138  15.302   5.392  0.0726  0.0354  0.0389
  238CHOL    R3 2676   8.277  15.089   5.296 -0.0840 -0.0004 -0.1134
  238CHOL    R4 2677   8.291  15.290   5.083  0.2374  0.2265  0.1110
  238CHOL    R5 2678   8.223  15.084   5.062  0.0404  0.3113 -0.1538
  238CHOL    C1 2679   8.511  15.083   4.812  0.1864  0.3041  0.0100
  238CHOL    C2 2680   8.711  14.919   4.483  0.0035  0.1268 -0.1077
  239CHOL   ROH 2681   3.201   3.867   5.995  0.1320  0.0930  0.0061
  239CHOL    R1 2682   3.146   3.780   5.732  0.1161  0.0305  0.0303
  239CHOL    R2 2683   2.976   3.916   5.562  0.1106 -0.0080  0.0078
  239CHOL    R3 2684   3.191   3.911   5.395  0.0999 -0.0527 -0.0051
  239CHOL    R4 2685   2.959   3.943   5.218  0.0913 -0.0017  0.0090
  239CHOL    R5 2686   3.114   3.790   5.204  0.0595 -0.0363 -0.0015
  239CHOL    C1 2687   3.151   3.953   4.861  0.0700 -0.0399 -0.0024
  239CHOL    C2 2688   3.096   3.889   4.457  0.1350 -0.0310  0.1097
  240POSM   NC3 2689  12.781   4.328   6.841 -0.1180 -0.0097 -0.2086
  240POSM   PO4 2690  12.349   4.245   6.593  0.0114 -0.1434 -0.0868
  240POSM   AM1 2691  12.590   4.065   6.133 -0.2450  0.2180 -0.0678
  240POSM   AM2 2692  12.915   4.032   5.997 -0.0423 -0.3329  0.1905
  240POSM   T1A 2693  12.487   4.281   5.739  0.1907 -0.0857  0.0332
  240POSM   C2A 2694  12.693   4.353   5.353  0.5021 -0.0556  0.2947
  240POSM   C3A 2695  13.062   4.140   5.151  0.0136 -0.0735 -0.3449
  240POSM   C1B 2696  12.830   3.900   5.560 -0.0727  0.1862 -0.0860
  240POSM   D2B 2697  12.633   3.825   5.177 -0.2290  0.0453 -0.0243
  240POSM   C3B 2698  12.639   4.215   4.792 -0.3381 -0.1356 -0.1102
  240POSM   C4B 2699  12.682   4.519   4.427 -0.0076 -0.1571 -0.3770
  241POPE   NH3 2700  15.025   8.460   6.358 -0.0287 -0.1153  0.0194
  241POPE   PO4 2701  15.259   8.821   6.225 -0.0735 -0.1581 -0.0491
  241POPE   GL1 2702  15.156   8.661   5.880  0.2123  0.1294 -0.1142
  241POPE   GL2 2703  15.237   8.366   5.709  0.3868 -0.1504  0.0080
  241POPE   C1A 2704  14.896   8.699   5.552  0.2118  0.1307  0.2727
  241POPE   D2A 2705  14.736   8.884   5.126 -0.2097  0.2208 -0.0511
  241POPE   C3A 2706  14.360   8.814   5.018 -0.3824  0.1915 -0.0035
  241POPE   C4A 2707  14.239   8.755   4.675 -0.0687  0.0840  0.1250
  241POPE   C1B 2708  15.100   8.363   5.208 -0.2734  0.0526  0.0128
  241POPE   C2B 2709  15.172   8.396   4.827  0.0378 -0.1300  0.3139
  241POPE   C3B 2710  15.062   8.355   4.447 -0.2206  0.2705  0.1380
  241POPE   C4B 2711  15.009   8.131   4.115  0.1138  0.0379  0.1699
  242POPS   CNO 2712   5.620  14.297   6.590  0.0156 -0.1519  0.1891
  242POPS   PO4 2713   5.769  14.654   6.496  0.3872  0.1634  0.3721
  242POPS   GL1 2714   5.568  14.437   6.097  0.0775 -0.1899 -0.2255
  242POPS   GL2 2715   5.718  14.309   5.845  0.1208 -0.0791  0.2095
  242POPS   C1A 2716   5.188  14.356   5.767 -0.1633 -0.1297 -0.0296
  242POPS   D2A 2717   5.157  14.513   5.353  0.0007 -0.0231 -0.1153
  242POPS   C3A 2718   4.837  14.453   5.115  0.2022  0.0446 -0.1939
  242POPS   C4A 2719   4.653  14.182   4.936 -0.0699  0.2372 -0.1367
  242POPS   C1B 2720   5.599  14.333   5.377 -0.0056  0.2609  0.0055
  242POPS   C2B 2721   5.768  14.228   4.956  0.0513 -0.1128  0.0511
  242POPS   C3B 2722   5.948  14.415   4.596  0.2098 -0.0420  0.1188
  242POPS   C4B 2723   5.970  14.807   4.344  0.3192  0.0291 -0.1428
  243CHOL   ROH 2724   3.520  12.651   5.871 -0.0694 -0.3369  0.1119
  243CHOL    R1 2725   3.449  12.747   5.615 -0.0531 -0.1277  0.1844
  243CHOL    R2 2726   3.612  12.718   5.394 -0.0510  0.0391  0.1645
  243CHOL    R3 2727   3.391  12.604   5.285 -0.0490  0.1436  0.0653
  243CHOL    R4 2728   3.582  12.624   5.063  0.1091 -0.0664  0.1784
  243CHOL    R5 2729   3.377  12.699   5.066  0.1586  0.0679  0.0181
  243CHOL    C1 2730   3.356  12.462   4.768  0.2042 -0.0298  0.0934
  243CHOL    C2 2731   3.637  12.313   4.607 -0.2485 -0.2641 -0.1082
  244POPE   NH3 2732   2.319   9.562   6.743 -0.1058  0.1612 -0.1192
  244POPE   PO4 2733   2.598   9.794   6.416 -0.1122 -0.2433  0.0690
  244POPE   GL1 2734   2.726   9.632   6.084 -0.1245 -0.1253 -0.2148
  244POPE   GL2 2735   2.870   9.356   6.059  0.1202  0.1575  0.2171
  244POPE   C1A 2736   2.935   9.791   5.730 -0.0795  0.0146 -0.1385
  244POPE   D2A 2737   2.917  10.274   5.737  0.0561  0.2294 -0.0437
  244POPE   C3A 2738   2.502  10.552   5.582  0.1618  0.3511 -0.0827
  244POPE   C4A 2739   2.405  10.732   5.169  0.1508  0.3423 -0.0891
  244POPE   C1B 2740   2.972   9.224   5.752  0.0351 -0.1773 -0.0142
  244POPE   C2B 2741   3.095   8.877   5.556 -0.0900  0.1075  0.0467
  244POPE   C3B 2742   3.348   8.527   5.612 -0.1859  0.0103 -0.1759
  244POPE   C4B 2743   3.204   8.107   5.862 -0.1459 -0.0406 -0.0420
  245POPS   CNO 2744   3.847   3.080   6.082 -0.0643  0.2152  0.0168
  245POPS   PO4 2745   4.270   3.019   5.918 -0.2766  0.0669 -0.0126
  245POPS   GL1 2746   4.093   2.857   5.633 -0.1854 -0.0585 -0.0682
  245POPS   GL2 2747   3.757   2.815   5.643  0.0695  0.3027 -0.2293
  245POPS   C1A 2748   3.980   2.865   5.197 -0.0567  0.3026  0.0959
  245POPS   D2A 2749   3.804   2.852   4.828 -0.2360  0.0189 -0.3648
  245POPS   C3A 2750   3.640   2.594   4.570 -0.3326  0.1498 -0.0124
  245POPS   C4A 2751   3.196   2.537   4.421 -0.1317  0.0731 -0.2352
  245POPS   C1B 2752   3.493   2.899   5.247 -0.1002  0.1975  0.1553
  245POPS   C2B 2753   3.368   3.055   4.747  0.0922 -0.1440  0.2819
  245POPS   C3B 2754   3.446   3.049   4.322 -0.2611 -0.1563 -0.0676
  245POPS   C4B 2755   3.299   2.935   4.035 -0.2037  0.1137 -0.0294
  246POPC   NC3 2756   3.472   5.503   6.182  0.0281 -0.0583 -0.2092
  246POPC   PO4 2757   2.937   5.691   6.286  0.0079  0.0070 -0.0327
  246POPC   GL1 2758   3.166   5.852   5.858  0.0496  0.0289  0.0984
  246POPC   GL2 2759   3.310   5.487   5.731 -0.2177  0.0321 -0.1643
  246POPC   C1A 2760   3.148   5.849   5.429 -0.1314 -0.0382 -0.3689
  246POPC   D2A 2761   3.024   5.929   5.064 -0.1043 -0.0079 -0.0130
  246POPC   C3A 2762   3.088   5.692   4.765  0.0969  0.2555 -0.0071
  246POPC   C4A 2763   3.195   5.624   4.189  0.1861  0.2901  0.0167
  246POPC   C1B 2764   3.261   5.413   5.235  0.0782 -0.0731  0.2193
  246POPC   C2B 2765   3.193   5.147   4.763  0.1296 -0.2828 -0.1295
  246POPC   C3B 2766   3.231   4.776   4.668 -0.2614  0.1633 -0.0515
  246POPC   C4B 2767   3.375   4.355   4.554  0.1664  0.3159 -0.2702
  247POSM   NC3 2768   6.150   1.140   6.586  0.1078  0.0205 -0.0646
  247POSM   PO4 2769   6.563   1.356   6.485 -0.1427  0.0516  0.0284
  247POSM   AM1 2770   6.503   1.386   6.077  0.0953  0.2360  0.2900
  247POSM   AM2 2771   6.753   1.403   5.845  0.2574  0.2407  0.2328
  247POSM   T1A 2772   6.202   1.347   5.816  0.2020 -0.1869  0.0666
  247POSM   C2A 2773   5.913   1.517   5.587  0.0720  0.1085  0.0750
  247POSM   C3A 2774   5.935   1.694   5.234  0.1359  0.2335 -0.1519
  247POSM   C1B 2775   6.583   1.407   5.427 -0.0565  0.2615  0.0403
  247POSM   D2B 2776   6.469   1.664   5.040  0.0186 -0.0902  0.2355
  247POSM   C3B 2777   6.064   1.734   4.801  0.1683 -0.1034  0.0638
  247POSM   C4B 2778   5.715   1.906   4.537  0.1836  0.2253  0.3196
  248CHOL   ROH 2779  13.593   5.019   5.882  0.0166 -0.0368 -0.0388
  248CHOL    R1 2780  13.450   4.889   5.675  0.0481  0.0112 -0.0916
  248CHOL    R2 2781  13.399   5.008   5.431  0.1215  0.0531 -0.0886
  248CHOL    R3 2782  13.516   4.783   5.334  0.1163  0.0515 -0.0904
  248CHOL    R4 2783  13.312   4.853   5.135 -0.1572 -0.1754  0.1078
  248CHOL    R5 2784  13.335   4.660   5.235  0.0574 -0.1021  0.1997
  248CHOL    C1 2785  13.370   4.551   4.871 -0.3244 -0.3099  0.2204
  248CHOL    C2 2786  13.194   4.345   4.703  0.3560 -0.1169 -0.0553
  249POPC   NC3 2787  10.390   3.232   6.370 -0.2200  0.0862  0.1067
  249POPC   PO4 2788  10.534   3.417   5.991  0.2963 -0.0066 -0.0321
  249POPC   GL1 2789  10.762   3.321   5.697 -0.1660  0.0626  0.0544
  249POPC   GL2 2790  10.600   3.089   5.427 -0.0766 -0.0881 -0.2068
  249POPC   C1A 2791  10.863   3.502   5.394 -0.0061  0.5342 -0.1297
  249POPC   D2A 2792  10.722   3.765   5.093  0.0822 -0.1892  0.3388
  249POPC   C3A 2793  10.777   3.683   4.685  0.0743 -0.1633  0.0523
  249POPC   C4A 2794  10.844   3.758   4.297  0.3535  0.1328 -0.1698
  249POPC   C1B 2795  10.355   3.439   5.287  0.1274 -0.2002  0.1443
  249POPC   C2B 2796  10.327   3.565   4.862  0.2738 -0.3695  0.2050
  249POPC   C3B 2797  10.174   3.281   4.509 -0.0369 -0.6132  0.1165
  249POPC   C4B 2798  10.012   3.014   4.227  0.3128  0.0069  0.0223
  250POPS   CNO 2799  14.934  10.914   6.480  0.0235  0.1532  0.0775
  250POPS   PO4 2800  15.256  10.734   6.244  0.1014  0.1885  0.3181
  250POPS   GL1 2801  15.006  10.886   5.968  0.2037 -0.5069 -0.0560
  250POPS   GL2 2802  15.031  11.143   5.917 -0.4723  0.0190  0.1131
  250POPS   C1A 2803  14.924  10.741   5.567  0.0666 -0.2326  0.2605
  250POPS   D2A 2804  14.778  10.686   5.147 -0.0078 -0.1367 -0.0861
  250POPS   C3A 2805  14.461  10.786   4.807  0.0285  0.4535  0.1086
  250POPS   C4A 2806  14.343  10.648   4.420  0.2429 -0.2522 -0.1053
  250POPS   C1B 2807  15.311  11.216   5.581  0.1898 -0.1774  0.3967
  250POPS   C2B 2808  15.348  11.489   5.248 -0.3355 -0.2240  0.1638
  250POPS   C3B 2809  15.746  11.548   4.952  0.1312 -0.0309  0.1910
  250POPS   C4B 2810  16.020  11.286   4.799 -0.1557 -0.0233  0.5346
  251POSM   NC3 2811   9.479   2.884   6.372 -0.1995  0.1990 -0.0391
  251POSM   PO4 2812   9.298   2.466   6.574  0.0941 -0.1764  0.3789
  251POSM   AM1 2813   9.366   2.392   6.073  0.3628  0.2456 -0.4069
  251POSM   AM2 2814   9.634   2.462   5.986  0.1872 -0.0849  0.0743
  251POSM   T1A 2815   9.075   2.182   5.801  0.1701  0.0208 -0.0762
  251POSM   C2A 2816   8.716   2.108   5.565 -0.5365  0.1727 -0.1523
  251POSM   C3A 2817   8.284   2.206   5.576 -0.1311  0.3112  0.0102
  251POSM   C1B 2818   9.552   2.250   5.596 -0.1519 -0.0332 -0.1905
  251POSM   D2B 2819   9.325   2.212   5.282 -0.0090  0.0366 -0.0690
  251POSM   C3B 2820   9.023   2.487   5.344 -0.0034  0.0791 -0.0569
  251POSM   C4B 2821   8.634   2.410   5.097 -0.0642  0.0041  0.1235
  252POPS   CNO 2822  15.421   5.802   6.697 -0.2178 -0.2102 -0.0356
  252POPS   PO4 2823  15.100   6.021   6.711 -0.3010  0.1623  0.0122
  252POPS   GL1 2824  14.891   5.817   6.313  0.2324  0.0077  0.0231
  252POPS   GL2 2825  15.014   6.049   6.007  0.2049 -0.5330 -0.1096
  252POPS   C1A 2826  14.625   5.727   5.887  0.0576  0.2415  0.0740
  252POPS   D2A 2827  14.233   5.588   5.490  0.0563  0.1560  0.3695
  252POPS   C3A 2828  14.229   5.281   5.261  0.0038 -0.0002  0.4053
  252POPS   C4A 2829  14.121   4.994   4.993 -0.1052  0.0760 -0.0883
  252POPS   C1B 2830  15.195   6.165   5.657  0.2269 -0.2384 -0.0643
  252POPS   C2B 2831  15.178   6.216   5.215  0.3788 -0.0683 -0.0172
  252POPS   C3B 2832  15.321   6.115   4.808  0.0371  0.1911  0.2418
  252POPS   C4B 2833  15.572   6.326   4.506  0.0142  0.0804 -0.2588
  253POPE   NH3 2834   3.265  12.271   6.114  0.0221 -0.1414 -0.2836
  253POPE   PO4 2835   3.739  12.287   6.164  0.0074  0.0106 -0.0999
  253POPE   GL1 2836   3.783  12.248   5.732  0.0080 -0.2629  0.1134
  253POPE   GL2 2837   3.508  12.177   5.587 -0.0960 -0.2384 -0.0809
  253POPE   C1A 2838   3.945  12.279   5.407  0.0528 -0.1985  0.1081
  253POPE   D2A 2839   3.985  12.211   5.027  0.1852 -0.0727 -0.0917
  253POPE   C3A 2840   4.278  12.243   4.713 -0.3477  0.0960 -0.0554
  253POPE   C4A 2841   4.058  12.024   4.304  0.0602  0.0353 -0.2963
  253POPE   C1B 2842   3.397  12.099   5.196 -0.0641 -0.1762 -0.1248
  253POPE   C2B 2843   3.363  11.948   4.747  0.0499  0.1341  0.0047
  253POPE   C3B 2844   2.982  11.738   4.615 -0.0890 -0.1126  0.1067
  253POPE   C4B 2845   2.559  11.815   4.658 -0.0904  0.0918  0.1228
  254POPC   NC3 2846   6.417  14.903   6.494  0.0060 -0.2849  0.2648
  254POPC   PO4 2847   6.216  14.852   6.200  0.3008 -0.0384 -0.1732
  254POPC   GL1 2848   5.814  14.893   6.023 -0.0255  0.1377  0.1645
  254POPC   GL2 2849   5.761  15.124   5.965  0.1440 -0.0924 -0.1387
  254POPC   C1A 2850   5.442  14.823   5.681  0.0333  0.0714  0.0293
  254POPC   D2A 2851   5.262  14.964   5.184  0.3348  0.1914 -0.1136
  254POPC   C3A 2852   4.821  14.944   5.065 -0.1535  0.1940  0.1643
  254POPC   C4A 2853   4.547  14.765   4.820  0.3464 -0.1991 -0.0559
  254POPC   C1B 2854   6.008  15.169   5.718 -0.0883 -0.1238 -0.2689
  254POPC   C2B 2855   6.145  15.131   5.352 -0.0900  0.2471  0.1120
  254POPC   C3B 2856   6.224  15.115   4.908  0.1978 -0.1334 -0.2097
  254POPC   C4B 2857   5.971  15.271   4.534 -0.3694 -0.1228 -0.0745
  255POPE   NH3 2858  11.229  15.296   6.287  0.1428 -0.0786  0.0413
  255POPE   PO4 2859  10.944  14.997   6.265 -0.0575  0.0406 -0.2507
  255POPE   GL1 2860  10.916  15.300   5.913 -0.2415 -0.2255 -0.0628
  255POPE   GL2 2861  10.570  15.341   5.901  0.0939 -0.0678 -0.1215
  255POPE   C1A 2862  11.010  15.448   5.514  0.0945  0.0902  0.1176
  255POPE   D2A 2863  11.087  15.729   5.037 -0.0033 -0.0731 -0.3826
  255POPE   C3A 2864  10.773  15.816   4.715 -0.3770  0.2764  0.2031
  255POPE   C4A 2865  10.416  15.662   4.562 -0.2296 -0.1238  0.1263
  255POPE   C1B 2866  10.489  15.366   5.532 -0.0342 -0.0352  0.0266
  255POPE   C2B 2867  10.337  15.116   5.115 -0.0803  0.1300 -0.1156
  255POPE   C3B 2868  10.293  14.876   4.782  0.0758  0.0126  0.1399
  255POPE   C4B 2869  10.012  14.840   4.369  0.2200  0.0660 -0.1098
  256POPC   NC3 2870  10.284  15.352   6.334  0.0495  0.0027 -0.2819
  256POPC   PO4 2871   9.855  15.463   6.326 -0.2072  0.0827  0.4819
  256POPC   GL1 2872  10.006  15.604   5.905  0.1251  0.1776  0.0112
  256POPC   GL2 2873  10.025  15.954   5.833 -0.1600  0.0186 -0.3474
  256POPC   C1A 2874  10.052  15.579   5.484 -0.0459  0.0687 -0.0029
  256POPC   D2A 2875  10.277  15.641   5.085 -0.1222  0.1175  0.0432
  256POPC   C3A 2876   9.936  15.642   4.777  0.1209 -0.1762  0.1409
  256POPC   C4A 2877   9.432  15.598   4.605  0.1031 -0.0178  0.0297
  256POPC   C1B 2878  10.253  16.195   5.431 -0.1613  0.1941  0.0336
  256POPC   C2B 2879  10.296  16.153   4.953 -0.1902  0.0568 -0.1107
  256POPC   C3B 2880  10.347  16.118   4.533  0.0195 -0.0163  0.2526
  256POPC   C4B 2881  10.197  16.219   4.060  0.3909 -0.0300  0.0934
  257CHOL   ROH 2882   3.965   3.366   5.605 -0.0039  0.2803  0.0207
  257CHOL    R1 2883   3.846   3.416   5.353 -0.0640  0.0712  0.0055
  257CHOL    R2 2884   3.987   3.520   5.140 -0.2097  0.2997  0.0115
  257CHOL    R3 2885   3.893   3.300   5.011  0.1676  0.1274  0.0180
  257CHOL    R4 2886   3.966   3.485   4.796 -0.1966  0.2586  0.0151
  257CHOL    R5 2887   3.773   3.387   4.823 -0.0169 -0.0891  0.0372
  257CHOL    C1 2888   3.865   3.258   4.476  0.1652  0.0730  0.0234
  257CHOL    C2 2889   3.997   2.907   4.234  0.0189  0.0439  0.0195
  258CHOL   ROH 2890   6.916   0.991   5.569  0.2343 -0.0185  0.0128
  258CHOL    R1 2891   6.888   0.977   5.288  0.0858 -0.0951  0.0304
  258CHOL    R2 2892   6.642   0.950   5.164 -0.0038  0.0986  0.1580
  258CHOL    R3 2893   6.722   1.172   5.029  0.1506 -0.0267  0.0405
  258CHOL    R4 2894   6.478   1.084   4.891 -0.0502  0.2096  0.2397
  258CHOL    R5 2895   6.673   1.123   4.800 -0.0705 -0.0343  0.0882
  258CHOL    C1 2896   6.458   1.371   4.605  0.0676  0.1566  0.1770
  258CHOL    C2 2897   6.149   1.408   4.429  0.0934  0.1818  0.2903
  259POPE   NH3 2898  15.166   7.566   6.042 -0.0505  0.0790  0.0305
  259POPE   PO4 2899  15.202   8.026   6.059 -0.1804  0.2517  0.1844
  259POPE   GL1 2900  15.425   7.869   5.666 -0.0424  0.0822 -0.0684
  259POPE   GL2 2901  15.634   7.671   5.439  0.2839  0.2235  0.0439
  259POPE   C1A 2902  15.494   8.042   5.193  0.0372 -0.0501 -0.1369
  259POPE   D2A 2903  15.588   8.094   4.705 -0.0590  0.1166 -0.1623
  259POPE   C3A 2904  15.448   7.807   4.476 -0.0675 -0.0767  0.4657
  259POPE   C4A 2905  15.389   7.603   4.174  0.2791  0.1544  0.1050
  259POPE   C1B 2906  15.636   7.580   5.004 -0.1195  0.0306 -0.1974
  259POPE   C2B 2907  15.944   7.749   4.676 -0.1397  0.1154 -0.0264
  259POPE   C3B 2908  16.223   8.015   4.539  0.3632  0.1772 -0.2483
  259POPE   C4B 2909  16.531   7.960   4.191  0.1592 -0.0499 -0.0839
  260POSM   NC3 2910  11.666  12.201   6.005 -0.3077 -0.2921 -0.2660
  260POSM   PO4 2911  11.968  12.183   6.395 -0.0983 -0.2296  0.1686
  260POSM   AM1 2912  12.110  12.349   5.900  0.1341 -0.2262 -0.1215
  260POSM   AM2 2913  12.333  12.357   5.802  0.3700  0.3629  0.2056
  260POSM   T1A 2914  12.119  12.694   5.472  0.0746 -0.2279 -0.2485
  260POSM   C2A 2915  12.131  12.684   5.161 -0.0333  0.0475  0.1252
  260POSM   C3A 2916  12.441  12.786   4.795  0.0354 -0.1234  0.1607
  260POSM   C1B 2917  12.553  12.477   5.392  0.0120  0.2238 -0.1451
  260POSM   D2B 2918  12.636  12.342   4.965  0.3247 -0.2449  0.0179
  260POSM   C3B 2919  12.979  12.336   4.571  0.1569 -0.3183 -0.1058
  260POSM   C4B 2920  13.106  12.514   4.251  0.0686  0.2310  0.1178
  261CHOL   ROH 2921   2.514   7.332   5.856  0.1910  0.0362 -0.1487
  261CHOL    R1 2922   2.416   7.496   5.647 -0.0728 -0.0473 -0.0927
  261CHOL    R2 2923   2.534   7.505   5.398 -0.0500  0.2635 -0.0745
  261CHOL    R3 2924   2.282   7.447   5.313  0.0586 -0.1491 -0.1330
  261CHOL    R4 2925   2.414   7.566   5.079 -0.1666  0.3759 -0.0102
  261CHOL    R5 2926   2.225   7.629   5.168 -0.3016 -0.0947  0.0658
  261CHOL    C1 2927   2.108   7.546   4.814 -0.1326  0.0539 -0.0276
  261CHOL    C2 2928   1.890   7.668   4.496 -0.0045  0.0643 -0.0821
  262CHOL   ROH 2929   9.474  16.174   5.838  0.1864  0.1661  0.2737
  262CHOL    R1 2930   9.381  15.967   5.668 -0.0904  0.2772  0.2837
  262CHOL    R2 2931   9.541  15.754   5.592 -0.1675  0.3848 -0.2128
  262CHOL    R3 2932   9.336  15.607   5.692  0.0713  0.2420  0.0852
  262CHOL    R4 2933   9.499  15.414   5.545  0.0245  0.3434 -0.0994
  262CHOL    R5 2934   9.286  15.449   5.520 -0.0385  0.1762  0.1751
  262CHOL    C1 2935   9.281  15.078   5.611  0.3605  0.1852  0.2463
  262CHOL    C2 2936   9.037  14.808   5.466  0.2681 -0.2031 -0.0947
  263POPE   NH3 2937  12.050  15.352   6.733  0.1136 -0.0030 -0.2787
  263POPE   PO4 2938  11.751  15.222   6.397 -0.0029 -0.0999 -0.0551
  263POPE   GL1 2939  11.660  15.235   5.881 -0.4968  0.0882  0.0128
  263POPE   GL2 2940  11.407  15.465   5.841 -0.1741 -0.1444 -0.1464
  263POPE   C1A 2941  11.768  15.201   5.373  0.1094 -0.0122 -0.1167
  263POPE   D2A 2942  11.819  15.171   4.969  0.1587 -0.0167  0.2661
  263POPE   C3A 2943  12.157  15.262   4.766 -0.1627  0.1423 -0.1279
  263POPE   C4A 2944  12.571  15.430   4.632 -0.1702 -0.0788 -0.1999
  263POPE   C1B 2945  11.453  15.663   5.451  0.0014  0.2741 -0.1927
  263POPE   C2B 2946  11.746  15.634   5.146 -0.0786 -0.0630 -0.1155
  263POPE   C3B 2947  11.761  15.686   4.719 -0.1025  0.0138  0.0340
  263POPE   C4B 2948  11.716  15.262   4.491 -0.3031  0.2457 -0.2011
  264POPS   CNO 2949   9.972   1.983   6.419  0.0332 -0.2169  0.2058
  264POPS   PO4 2950  10.103   2.257   6.056  0.0926 -0.2152 -0.3283
  264POPS   GL1 2951  10.471   2.435   5.893  0.2178  0.1197  0.0450
  264POPS   GL2 2952  10.720   2.348   5.883  0.0352  0.1077 -0.0391
  264POPS   C1A 2953  10.449   2.579   5.542 -0.0640  0.1111 -0.4643
  264POPS   D2A 2954  10.523   2.662   5.225  0.1669 -0.0227  0.0353
  264POPS   C3A 2955  10.319   2.581   4.851  0.1713  0.1294 -0.0675
  264POPS   C4A 2956  10.327   2.713   4.405 -0.2261 -0.0109 -0.4261
  264POPS   C1B 2957  10.863   2.318   5.434 -0.0872 -0.3160 -0.0456
  264POPS   C2B 2958  11.003   2.330   5.018 -0.1351  0.1394  0.0862
  264POPS   C3B 2959  10.999   2.231   4.494 -0.1186 -0.2019 -0.1522
  264POPS   C4B 2960  10.743   2.463   4.315  0.1313  0.1858 -0.1862
  265POPE   NH3 2961   7.820  15.067   6.301  0.0133 -0.1404  0.0876
  265POPE   PO4 2962   8.346  15.184   6.240 -0.1560  0.1053  0.0981
  265POPE   GL1 2963   8.309  15.559   5.897  0.0117 -0.4337  0.0389
  265POPE   GL2 2964   8.037  15.758   5.939 -0.3977  0.1710  0.1419
  265POPE   C1A 2965   8.381  15.707   5.493 -0.2230  0.0951  0.0616
  265POPE   D2A 2966   8.527  15.823   5.045  0.1169  0.3033  0.0932
  265POPE   C3A 2967   8.358  15.510   4.655 -0.0123 -0.0071 -0.1441
  265POPE   C4A 2968   8.103  15.169   4.534  0.0115  0.0429  0.0542
  265POPE   C1B 2969   7.882  15.686   5.572  0.3873  0.1671 -0.0170
  265POPE   C2B 2970   7.563  15.482   5.292  0.0053 -0.0913 -0.0475
  265POPE   C3B 2971   7.385  15.560   4.888 -0.1363 -0.1578  0.0961
  265POPE   C4B 2972   7.042  15.514   4.645  0.1397  0.0554  0.0026
  266POPC   NC3 2973  14.498   5.115   6.902  0.1100 -0.2826  0.0958
  266POPC   PO4 2974  14.337   5.370   6.788  0.1257 -0.2341 -0.0363
  266POPC   GL1 2975  14.247   5.178   6.248  0.1543  0.3653  0.0206
  266POPC   GL2 2976  13.974   5.244   6.025 -0.0694  0.1430  0.0275
  266POPC   C1A 2977  14.418   5.242   5.797  0.1651 -0.5048  0.0770
  266POPC   D2A 2978  14.612   4.995   5.457 -0.2040 -0.1103 -0.0986
  266POPC   C3A 2979  14.692   5.156   5.039 -0.0480  0.3429  0.0795
  266POPC   C4A 2980  14.467   5.423   4.695  0.1545  0.2387  0.2799
  266POPC   C1B 2981  13.872   5.215   5.558  0.3820 -0.1334  0.0249
  266POPC   C2B 2982  13.708   5.218   5.114  0.0569 -0.0048  0.1354
  266POPC   C3B 2983  13.603   5.092   4.729  0.2197  0.1502 -0.2746
  266POPC   C4B 2984  13.562   4.745   4.383 -0.0011 -0.1483  0.0874
  267POPC   NC3 2985   2.445   7.827   6.393  0.0792 -0.2635  0.1526
  267POPC   PO4 2986   1.993   7.850   6.482  0.0029  0.1995 -0.2690
  267POPC   GL1 2987   1.900   7.585   6.112  0.1098  0.3096  0.0537
  267POPC   GL2 2988   1.672   7.238   6.204 -0.3120  0.0135 -0.2195
  267POPC   C1A 2989   1.962   7.623   5.640  0.1393  0.2056  0.2319
  267POPC   D2A 2990   1.724   7.863   5.311  0.1788 -0.0138 -0.0216
  267POPC   C3A 2991   1.916   7.974   4.949 -0.0038 -0.3920  0.3540
  267POPC   C4A 2992   2.023   8.165   4.578 -0.2892 -0.0998  0.0328
  267POPC   C1B 2993   1.494   7.295   5.826 -0.2216  0.0623  0.2820
  267POPC   C2B 2994   1.601   7.359   5.375 -0.0077  0.2096  0.2647
  267POPC   C3B 2995   1.616   7.457   4.947  0.3572  0.0219 -0.0892
  267POPC   C4B 2996   1.386   7.415   4.592 -0.0168  0.0095 -0.3319
  268POPS   CNO 2997  14.670  11.909   6.892 -0.3334  0.2074  0.1077
  268POPS   PO4 2998  14.410  12.104   6.577 -0.1865  0.1893 -0.1246
  268POPS   GL1 2999  14.568  12.402   6.075 -0.1462 -0.1064 -0.0419
  268POPS   GL2 3000  14.732  12.613   5.861 -0.0082 -0.1895  0.0902
  268POPS   C1A 3001  14.300  12.227   5.692 -0.0334 -0.0739  0.0051
  268POPS   D2A 3002  13.889  12.222   5.501 -0.0137  0.1954  0.1243
  268POPS   C3A 3003  13.980  11.827   5.449 -0.0057 -0.0777  0.0113
  268POPS   C4A 3004  14.100  11.374   5.604  0.4332  0.0838 -0.0368
  268POPS   C1B 3005  14.942  12.676   5.545  0.1096 -0.1736 -0.2115
  268POPS   C2B 3006  14.868  12.568   5.168 -0.1573 -0.1180  0.0196
  268POPS   C3B 3007  14.673  12.720   4.877  0.3501  0.1388  0.1362
  268POPS   C4B 3008  14.390  12.529   4.726  0.0714 -0.1094  0.2250
  269CHOL   ROH 3009   3.505   9.930   6.144  0.2607  0.1381 -0.0456
  269CHOL    R1 3010   3.338  10.018   5.933  0.1844  0.0102 -0.0402
  269CHOL    R2 3011   3.417  10.212   5.752  0.0553  0.0247 -0.0857
  269CHOL    R3 3012   3.351  10.021   5.569  0.1385 -0.0454 -0.0423
  269CHOL    R4 3013   3.402  10.262   5.410 -0.3071  0.0342 -0.0719
  269CHOL    R5 3014   3.223  10.138   5.405 -0.1565 -0.1944  0.0769
  269CHOL    C1 3015   3.332  10.113   5.040 -0.4400 -0.0261 -0.0232
  269CHOL    C2 3016   3.543   9.874   4.680 -0.0367 -0.1124  0.0680
  270CHOL   ROH 3017   2.730   8.203   6.054 -0.0766 -0.0034  0.0908
  270CHOL    R1 3018   2.629   8.291   5.805 -0.0970 -0.2327  0.0162
  270CHOL    R2 3019   2.743   8.499   5.663 -0.4009 -0.0329  0.0581
  270CHOL    R3 3020   2.751   8.315   5.463  0.0692 -0.0547  0.0853
  270CHOL    R4 3021   2.778   8.574   5.328 -0.3018 -0.0156  0.0714
  270CHOL    R5 3022   2.632   8.418   5.283  0.0029 -0.2910 -0.0121
  270CHOL    C1 3023   2.806   8.445   4.944  0.1972 -0.0260  0.1047
  270CHOL    C2 3024   2.935   8.786   4.719  0.1429 -0.0223 -0.1324
  271POPC   NC3 3025   2.032   6.425   6.582  0.1762  0.0817  0.1046
  271POPC   PO4 3026   2.327   6.489   6.272 -0.0115  0.2471 -0.0809
  271POPC   GL1 3027   2.318   6.368   5.898  0.0070 -0.1509 -0.1887
  271POPC   GL2 3028   1.951   6.308   5.940 -0.1330 -0.1201 -0.2427
  271POPC   C1A 3029   2.248   6.559   5.571  0.1482 -0.2604  0.4120
  271POPC   D2A 3030   1.927   6.438   5.254  0.2579  0.0819 -0.1854
  271POPC   C3A 3031   1.949   6.615   4.857  0.0743 -0.0740  0.1600
  271POPC   C4A 3032   1.810   6.594   4.499 -0.3707 -0.2111 -0.1224
  271POPC   C1B 3033   1.692   6.229   5.647  0.0465 -0.1034  0.1585
  271POPC   C2B 3034   1.323   6.328   5.400  0.0156 -0.3670 -0.0043
  271POPC   C3B 3035   0.998   6.081   5.198  0.1140 -0.0706  0.0154
  271POPC   C4B 3036   0.819   6.153   4.819 -0.0682 -0.0026  0.4271
  272POPE   NH3 3037   6.077  14.308   6.222  0.2487  0.2733  0.0570
  272POPE   PO4 3038   6.510  14.388   6.297 -0.0872  0.1908 -0.1008
  272POPE   GL1 3039   6.521  14.578   5.945 -0.1181 -0.1535  0.1422
  272POPE   GL2 3040   6.247  14.501   5.793 -0.1168 -0.2941  0.1213
  272POPE   C1A 3041   6.644  14.367   5.484 -0.2109 -0.3406 -0.2232
  272POPE   D2A 3042   6.767  14.223   5.207 -0.0879  0.0058  0.4366
  272POPE   C3A 3043   7.072  14.221   4.785  0.1349 -0.2931 -0.0080
  272POPE   C4A 3044   7.267  14.500   4.464 -0.0763 -0.0639 -0.0646
  272POPE   C1B 3045   5.947  14.673   5.635  0.2163  0.1389  0.0786
  272POPE   C2B 3046   5.768  14.817   5.273 -0.4639  0.0483  0.4555
  272POPE   C3B 3047   5.750  14.889   4.861 -0.1869  0.0058  0.1495
  272POPE   C4B 3048   5.412  15.038   4.733 -0.0908 -0.1723 -0.0930
  273CHOL   ROH 3049   3.154   4.361   5.827  0.1483  0.0834  0.0737
  273CHOL    R1 3050   3.137   4.477   5.570  0.2109 -0.0354  0.0162
  273CHOL    R2 3051   3.231   4.350   5.343  0.1105 -0.2179  0.0776
  273CHOL    R3 3052   2.978   4.395   5.253  0.1309 -0.0897  0.0684
  273CHOL    R4 3053   3.142   4.377   5.010  0.1562  0.0298  0.0822
  273CHOL    R5 3054   3.007   4.539   5.064  0.1917  0.0304  0.1698
  273CHOL    C1 3055   2.853   4.434   4.731  0.2019  0.2943  0.0763
  273CHOL    C2 3056   2.831   4.605   4.432 -0.3662  0.1353  0.2923
  274POPC   NC3 3057   2.570  12.593   6.097  0.1106  0.3983 -0.3747
  274POPC   PO4 3058   2.796  12.197   6.266  0.0223  0.0425  0.0069
  274POPC   GL1 3059   2.798  12.168   5.855 -0.0725 -0.0081 -0.1120
  274POPC   GL2 3060   3.031  12.358   5.628 -0.0056  0.2228  0.1123
  274POPC   C1A 3061   2.743  11.881   5.633  0.2394  0.2986  0.1845
  274POPC   D2A 3062   2.652  11.923   5.130 -0.0921 -0.3788 -0.1462
  274POPC   C3A 3063   2.359  12.235   4.860 -0.2474 -0.0897 -0.0001
  274POPC   C4A 3064   2.044  12.568   4.665  0.0360  0.0308 -0.0374
  274POPC   C1B 3065   2.971  12.366   5.191 -0.0231  0.2284  0.2206
  274POPC   C2B 3066   2.890  12.295   4.746  0.2765 -0.0909  0.0906
  274POPC   C3B 3067   2.666  12.366   4.398  0.1367 -0.1402  0.1460
  274POPC   C4B 3068   2.307  12.252   4.318 -0.0773  0.4277  0.0318
  275POPS   CNO 3069  11.832  13.459   6.541 -0.0160  0.0744 -0.1005
  275POPS   PO4 3070  12.067  13.454   6.242 -0.0708 -0.0908  0.0954
  275POPS   GL1 3071  11.782  13.573   5.918 -0.1022  0.1930 -0.0100
  275POPS   GL2 3072  11.681  13.307   5.772  0.3888  0.2212  0.0227
  275POPS   C1A 3073  11.729  13.754   5.515  0.1040 -0.0144 -0.1446
  275POPS   D2A 3074  11.548  13.896   5.009  0.1943 -0.2720 -0.0640
  275POPS   C3A 3075  11.876  14.196   4.936  0.2475  0.0532  0.2711
  275POPS   C4A 3076  12.142  14.403   4.646 -0.1108 -0.1734  0.1088
  275POPS   C1B 3077  12.017  13.197   5.580 -0.3465 -0.3355  0.1033
  275POPS   C2B 3078  12.148  13.181   5.199 -0.1550 -0.1227  0.2865
  275POPS   C3B 3079  12.285  13.270   4.819  0.1106  0.1578 -0.0430
  275POPS   C4B 3080  12.507  13.078   4.386  0.2185  0.0488  0.0190
  276CHOL   ROH 3081   3.471   3.445   6.010  0.0210  0.0453 -0.0651
  276CHOL    R1 3082   3.503   3.379   5.737  0.1608  0.2040 -0.0893
  276CHOL    R2 3083   3.298   3.271   5.585  0.3497 -0.0768 -0.1518
  276CHOL    R3 3084   3.353   3.481   5.421  0.0221  0.0847 -0.0639
  276CHOL    R4 3085   3.216   3.285   5.250  0.3545 -0.0842 -0.1530
  276CHOL    R5 3086   3.409   3.379   5.212  0.2122  0.2538 -0.1000
  276CHOL    C1 3087   3.220   3.490   4.900  0.0498  0.0630 -0.0713
  276CHOL    C2 3088   3.349   3.540   4.660  0.0131 -0.2332 -0.0362
  277CHOL   ROH 3089   8.492  15.034   5.799 -0.3382 -0.0725 -0.1629
  277CHOL    R1 3090   8.557  15.208   5.586 -0.2721 -0.0751 -0.1463
  277CHOL    R2 3091   8.818  15.260   5.510 -0.2419  0.0545  0.0443
  277CHOL    R3 3092   8.729  15.182   5.266 -0.0122 -0.0411 -0.0122
  277CHOL    R4 3093   8.947  15.368   5.208 -0.1751  0.1985  0.1231
  277CHOL    R5 3094   8.744  15.378   5.131 -0.1440 -0.0196 -0.0003
  277CHOL    C1 3095   8.937  15.357   4.803  0.0793  0.1926  0.1159
  277CHOL    C2 3096   8.853  15.549   4.381  0.2337  0.0562  0.2468
  278POPE   NH3 3097   1.932   8.876   6.227  0.0723 -0.0354 -0.0234
  278POPE   PO4 3098   1.921   9.275   6.398  0.2238  0.2007 -0.1674
  278POPE   GL1 3099   1.980   9.284   5.956  0.0747 -0.2779 -0.0078
  278POPE   GL2 3100   2.371   9.474   5.867  0.2713 -0.1427 -0.2199
  278POPE   C1A 3101   2.100   9.118   5.525  0.0675  0.0677 -0.2296
  278POPE   D2A 3102   1.944   8.962   5.140  0.0080  0.5286  0.0131
  278POPE   C3A 3103   1.719   9.176   4.835 -0.1552 -0.0717  0.1279
  278POPE   C4A 3104   1.575   9.492   4.481  0.2671 -0.1050 -0.2451
  278POPE   C1B 3105   2.546   9.509   5.572 -0.0038  0.1264  0.1435
  278POPE   C2B 3106   2.792   9.470   5.195 -0.0863  0.3306 -0.2453
  278POPE   C3B 3107   3.034   9.166   5.027  0.3053  0.2744 -0.0614
  278POPE   C4B 3108   3.311   9.165   4.735 -0.1267 -0.1148 -0.0803
  279CHOL   ROH 3109  15.649   6.068   5.847 -0.0342 -0.2658  0.0323
  279CHOL    R1 3110  15.650   6.026   5.567  0.0848 -0.1523  0.0140
  279CHOL    R2 3111  15.630   6.233   5.385  0.0023 -0.0903  0.0913
  279CHOL    R3 3112  15.858   6.125   5.285  0.1102  0.1052  0.1207
  279CHOL    R4 3113  15.777   6.323   5.085 -0.0956 -0.0403  0.0582
  279CHOL    R5 3114  15.820   6.113   5.049  0.1152 -0.0105  0.1250
  279CHOL    C1 3115  16.076   6.273   4.817 -0.0512  0.1723  0.0666
  279CHOL    C2 3116  16.049   6.305   4.382 -0.1086 -0.0568  0.1130
  280POPS   CNO 3117   7.652   1.915   6.464 -0.1733  0.2730 -0.3271
  280POPS   PO4 3118   7.544   1.638   6.178 -0.0731 -0.3090  0.0563
  280POPS   GL1 3119   7.544   1.429   5.833  0.0105 -0.1697  0.1019
  280POPS   GL2 3120   7.249   1.454   5.768 -0.0421  0.1902 -0.3186
  280POPS   C1A 3121   7.646   1.343   5.376  0.1245  0.0555 -0.0788
  280POPS   D2A 3122   7.735   1.465   4.950  0.0040  0.2143  0.6064
  280POPS   C3A 3123   7.864   1.786   4.770 -0.1596 -0.0476  0.0920
  280POPS   C4A 3124   8.193   2.008   4.864  0.3579 -0.2087  0.1883
  280POPS   C1B 3125   7.042   1.448   5.387  0.0611  0.2521  0.0948
  280POPS   C2B 3126   7.198   1.376   5.048  0.0815 -0.0430  0.1332
  280POPS   C3B 3127   7.250   1.300   4.670 -0.1083  0.0812  0.0670
  280POPS   C4B 3128   6.921   1.291   4.378 -0.1098 -0.0110  0.0150
  281POSM   NC3 3129  14.741   4.362   7.018 -0.0258 -0.2063 -0.1048
  281POSM   PO4 3130  14.753   4.699   6.792  0.0719 -0.2615 -0.1668
  281POSM   AM1 3131  14.848   4.825   6.396 -0.3938  0.2189 -0.0078
  281POSM   AM2 3132  15.012   4.592   6.377  0.0826  0.2110  0.1539
  281POSM   T1A 3133  15.025   5.091   6.011 -0.0450 -0.0979 -0.0264
  281POSM   C2A 3134  14.855   5.377   5.665 -0.0777  0.6434 -0.0934
  281POSM   C3A 3135  14.666   5.569   5.264 -0.0290 -0.2847 -0.1110
  281POSM   C1B 3136  15.138   4.581   5.994 -0.0005  0.0184 -0.0852
  281POSM   D2B 3137  14.951   4.603   5.587 -0.1968  0.2754  0.0054
  281POSM   C3B 3138  15.084   4.797   5.345  0.1044  0.1462  0.1391
  281POSM   C4B 3139  15.252   5.255   5.327 -0.0143  0.0804  0.3011
  282CHOL   ROH 3140   8.666   1.264   5.894  0.0041 -0.0211  0.0094
  282CHOL    R1 3141   8.713   1.144   5.642  0.1668  0.0747 -0.0064
  282CHOL    R2 3142   8.531   1.156   5.434  0.0813 -0.2689  0.0451
  282CHOL    R3 3143   8.742   1.258   5.297 -0.1428  0.1455 -0.0116
  282CHOL    R4 3144   8.553   1.175   5.090 -0.0054 -0.3101  0.0364
  282CHOL    R5 3145   8.762   1.117   5.105  0.1280  0.1316  0.0216
  282CHOL    C1 3146   8.765   1.281   4.761 -0.2663  0.0549 -0.0220
  282CHOL    C2 3147   8.946   1.141   4.376  0.0192 -0.1413 -0.0160
  283POPS   CNO 3148   2.428   5.547   6.230 -0.2897  0.2197 -0.1899
  283POPS   PO4 3149   2.165   5.978   6.268 -0.1451 -0.0017  0.1446
  283POPS   GL1 3150   2.190   5.811   5.786 -0.3504 -0.0467  0.2969
  283POPS   GL2 3151   2.259   5.507   5.707 -0.2408 -0.0388  0.1457
  283POPS   C1A 3152   1.900   5.813   5.388 -0.2670  0.1764 -0.3174
  283POPS   D2A 3153   1.676   6.110   5.010  0.0989  0.0412 -0.0940
  283POPS   C3A 3154   1.766   6.077   4.643 -0.2333 -0.1843 -0.3264
  283POPS   C4A 3155   1.859   6.098   4.257 -0.1082  0.0603  0.1945
  283POPS   C1B 3156   2.229   5.470   5.229  0.1936  0.0099  0.3511
  283POPS   C2B 3157   1.948   5.598   4.884  0.0130  0.2525  0.0399
  283POPS   C3B 3158   2.033   5.664   4.402 -0.0617  0.0942 -0.2861
  283POPS   C4B 3159   2.154   5.775   3.879  0.0297  0.0907 -0.0160
  284POPS   CNO 3160  15.939   9.795   6.752  0.0717 -0.1384  0.2057
  284POPS   PO4 3161  15.704  10.060   6.400  0.0248 -0.0164  0.1199
  284POPS   GL1 3162  15.959  10.199   6.019 -0.0614  0.0606 -0.3090
  284POPS   GL2 3163  16.115   9.904   5.924 -0.0822  0.4547 -0.1834
  284POPS   C1A 3164  15.905  10.508   5.718 -0.0663 -0.0969  0.0523
  284POPS   D2A 3165  15.841  10.591   5.342 -0.1067  0.0719 -0.2462
  284POPS   C3A 3166  15.829  10.375   4.962  0.3766 -0.1986  0.1630
  284POPS   C4A 3167  16.098  10.061   4.826  0.0849 -0.0626  0.1309
  284POPS   C1B 3168  16.146  10.004   5.539  0.0664 -0.1199 -0.1149
  284POPS   C2B 3169  16.321  10.229   5.218 -0.1633 -0.1554  0.1247
  284POPS   C3B 3170  16.619  10.136   4.821  0.2378 -0.2575 -0.0817
  284POPS   C4B 3171  16.568   9.899   4.560 -0.1208  0.5887 -0.1018
  285POPE   NH3 3172  15.415   9.667   6.609 -0.3344  0.3612 -0.0474
  285POPE   PO4 3173  15.421   9.252   6.432  0.1691 -0.0622 -0.0743
  285POPE   GL1 3174  15.558   9.307   6.076  0.1595 -0.1228  0.2731
  285POPE   GL2 3175  15.627   9.030   5.961  0.0064 -0.2032  0.1192
  285POPE   C1A 3176  15.500   9.461   5.639 -0.0211  0.0640  0.3222
  285POPE   D2A 3177  15.507   9.307   5.167 -0.0498 -0.1187  0.0083
  285POPE   C3A 3178  15.353   9.603   4.767  0.2450 -0.0906  0.0633
  285POPE   C4A 3179  15.037   9.956   4.582  0.0398  0.0198 -0.0442
  285POPE   C1B 3180  15.801   9.050   5.496  0.1010 -0.0277 -0.3450
  285POPE   C2B 3181  15.912   8.954   5.010 -0.1945 -0.1076  0.0068
  285POPE   C3B 3182  15.913   9.266   4.763 -0.1648  0.0197  0.1698
  285POPE   C4B 3183  15.883   9.695   4.632 -0.0973 -0.1344 -0.0464
  286POPE   NH3 3184   4.422   1.747   6.598 -0.0030 -0.3096 -0.0126
  286POPE   PO4 3185   4.691   1.969   6.327 -0.2488  0.0602 -0.1399
  286POPE   GL1 3186   4.897   2.275   6.107  0.4017 -0.1702  0.1453
  286POPE   GL2 3187   5.025   2.537   5.963  0.0572  0.0802 -0.1158
  286POPE   C1A 3188   5.039   2.210   5.624  0.0426 -0.0874  0.0781
  286POPE   D2A 3189   5.006   2.201   5.197  0.0116 -0.0449 -0.0309
  286POPE   C3A 3190   4.729   2.027   5.006 -0.0546  0.2428  0.2030
  286POPE   C4A 3191   4.656   1.876   4.519 -0.0329 -0.1190  0.3194
  286POPE   C1B 3192   5.035   2.717   5.542 -0.3469  0.2013  0.2786
  286POPE   C2B 3193   5.059   2.717   5.143  0.0105  0.2471  0.1085
  286POPE   C3B 3194   5.176   2.376   4.809 -0.3859  0.0756 -0.2304
  286POPE   C4B 3195   5.200   2.148   4.486  0.1196 -0.0072 -0.1309
  287POPE   NH3 3196  15.968   8.150   6.398  0.0319  0.1455  0.0926
  287POPE   PO4 3197  16.261   8.444   6.150  0.1021  0.1415  0.0376
  287POPE   GL1 3198  16.167   8.623   5.841 -0.0431 -0.0537  0.2410
  287POPE   GL2 3199  15.863   8.623   5.811  0.0001  0.0875 -0.2339
  287POPE   C1A 3200  16.105   8.544   5.299 -0.2968  0.1192 -0.1121
  287POPE   D2A 3201  16.235   8.629   4.852  0.1404  0.0826  0.0677
  287POPE   C3A 3202  16.345   8.608   4.387  0.1724  0.0206 -0.2934
  287POPE   C4A 3203  16.312   8.335   3.846  0.1156 -0.1241  0.2053
  287POPE   C1B 3204  15.586   8.628   5.467  0.0665 -0.0517 -0.3311
  287POPE   C2B 3205  15.650   8.486   5.056  0.1852  0.0118  0.1608
  287POPE   C3B 3206  15.523   8.647   4.670  0.1323  0.0690  0.0808
  287POPE   C4B 3207  15.503   9.186   4.566 -0.2578  0.0676  0.1866
  288POPS   CNO 3208  12.100   3.940   6.220  0.0197 -0.2675  0.0997
  288POPS   PO4 3209  12.384   3.550   6.242 -0.0851  0.2595  0.1621
  288POPS   GL1 3210  12.296   3.341   5.915  0.1945 -0.1937  0.2393
  288POPS   GL2 3211  12.614   3.334   5.749 -0.2203 -0.0344  0.3374
  288POPS   C1A 3212  12.117   3.225   5.453  0.2882  0.1769 -0.0756
  288POPS   D2A 3213  11.964   2.859   5.412  0.0282 -0.2111  0.0940
  288POPS   C3A 3214  11.696   2.888   5.138 -0.0497  0.0277 -0.0423
  288POPS   C4A 3215  11.345   2.873   4.838 -0.3307 -0.1355 -0.1323
  288POPS   C1B 3216  12.697   3.386   5.321 -0.1146 -0.0076  0.0329
  288POPS   C2B 3217  12.493   3.398   4.967  0.3488 -0.1164  0.0808
  288POPS   C3B 3218  12.172   3.696   4.832 -0.0988 -0.2909 -0.1801
  288POPS   C4B 3219  11.673   3.857   4.874 -0.3208  0.1690 -0.0156
  289POPS   CNO 3220   5.577  16.470   6.549 -0.0217 -0.1690  0.0164
  289POPS   PO4 3221   5.454  16.429   6.112  0.1371  0.3749  0.1671
  289POPS   GL1 3222   5.562  16.753   5.833  0.0158  0.1042  0.1616
  289POPS   GL2 3223   5.857  16.752   5.701  0.0569  0.1369  0.1213
  289POPS   C1A 3224   5.558  17.142   5.534 -0.0954 -0.0319 -0.1206
  289POPS   D2A 3225   5.265  17.448   5.529 -0.0826 -0.1070  0.0407
  289POPS   C3A 3226   5.169  17.481   5.135  0.4432  0.0796  0.0628
  289POPS   C4A 3227   5.038  17.658   4.850 -0.1984  0.0886 -0.0065
  289POPS   C1B 3228   5.764  16.807   5.266 -0.0723  0.0231 -0.1080
  289POPS   C2B 3229   5.572  17.008   5.031 -0.1438  0.2682  0.1252
  289POPS   C3B 3230   5.670  16.971   4.583  0.2278  0.1034  0.0445
  289POPS   C4B 3231   5.852  17.063   4.194 -0.0508  0.3118 -0.0962
  290POPE   NH3 3232   4.676  13.352   6.465 -0.0004  0.1149  0.1534
  290POPE   PO4 3233   4.809  13.164   6.157  0.2824  0.0822  0.0086
  290POPE   GL1 3234   5.045  13.418   5.966  0.0525 -0.2839 -0.0768
  290POPE   GL2 3235   5.331  13.324   5.864  0.0407  0.0286  0.0227
  290POPE   C1A 3236   5.058  13.763   5.702  0.1768  0.1440  0.0673
  290POPE   D2A 3237   4.928  13.950   5.350 -0.2556 -0.3912 -0.2678
  290POPE   C3A 3238   5.267  14.054   5.065  0.4321  0.2042  0.1588
  290POPE   C4A 3239   5.364  14.508   4.916  0.1649 -0.0582  0.3204
  290POPE   C1B 3240   5.214  13.437   5.384 -0.0306  0.0510  0.0608
  290POPE   C2B 3241   5.030  13.570   5.033  0.1088 -0.1474 -0.0930
  290POPE   C3B 3242   5.008  13.821   4.633  0.0074 -0.0872  0.0482
  290POPE   C4B 3243   4.805  13.889   4.170  0.0086  0.2133  0.1599
  291POPE   NH3 3244   4.035  14.156   6.318 -0.3642  0.0909 -0.3082
  291POPE   PO4 3245   4.162  14.629   6.383  0.0561  0.0158  0.4576
  291POPE   GL1 3246   4.185  14.926   6.066  0.0633  0.1325 -0.0579
  291POPE   GL2 3247   3.950  15.052   5.971  0.2801  0.4302  0.0633
  291POPE   C1A 3248   4.311  14.861   5.713 -0.0496  0.0697 -0.0996
  291POPE   D2A 3249   4.491  14.827   5.372  0.3908  0.2386 -0.2095
  291POPE   C3A 3250   4.337  14.370   5.303 -0.0618 -0.2417  0.0916
  291POPE   C4A 3251   4.107  14.212   4.877  0.1501  0.1932  0.0084
  291POPE   C1B 3252   3.774  15.164   5.564 -0.3290  0.0040  0.0158
  291POPE   C2B 3253   3.609  15.256   5.227  0.1328 -0.0047 -0.1057
  291POPE   C3B 3254   3.460  15.333   4.850  0.1884 -0.1839  0.0810
  291POPE   C4B 3255   3.143  15.589   4.774 -0.0423  0.0440  0.0030
  292POPS   CNO 3256  14.390  12.605   6.751 -0.1240 -0.4408 -0.0582
  292POPS   PO4 3257  14.524  12.761   6.418  0.3274 -0.1001 -0.1373
  292POPS   GL1 3258  14.194  12.794   5.975 -0.2515 -0.0545 -0.0931
  292POPS   GL2 3259  13.857  12.795   6.029  0.3885 -0.1973  0.1696
  292POPS   C1A 3260  14.293  12.780   5.561 -0.0635  0.1925  0.0423
  292POPS   D2A 3261  14.413  12.487   5.268 -0.1668  0.2858 -0.4132
  292POPS   C3A 3262  14.162  12.194   5.061  0.0466  0.3861 -0.2357
  292POPS   C4A 3263  13.689  12.120   5.062  0.0609 -0.1036 -0.2207
  292POPS   C1B 3264  13.785  12.685   5.604  0.1591 -0.1169  0.2021
  292POPS   C2B 3265  13.886  12.583   5.159  0.1877  0.0844 -0.0893
  292POPS   C3B 3266  13.923  12.688   4.685 -0.1153 -0.0844 -0.0273
  292POPS   C4B 3267  14.046  12.336   4.319  0.0747 -0.3299 -0.3340
  293CHOL   ROH 3268   4.480   2.545   5.847  0.0451  0.1295  0.0796
  293CHOL    R1 3269   4.559   2.627   5.588 -0.1061  0.0936  0.0213
  293CHOL    R2 3270   4.577   2.451   5.375 -0.2340  0.0664  0.0370
  293CHOL    R3 3271   4.412   2.631   5.255 -0.3003  0.0517  0.1038
  293CHOL    R4 3272   4.511   2.462   5.036 -0.1434  0.2305  0.0228
  293CHOL    R5 3273   4.519   2.680   5.046 -0.2637  0.2355  0.1597
  293CHOL    C1 3274   4.317   2.637   4.726 -0.1530  0.3121  0.0772
  293CHOL    C2 3275   4.480   2.856   4.357  0.1355 -0.0137 -0.0337
  294POPE   NH3 3276  16.427  11.485   6.232 -0.2104  0.0088  0.1879
  294POPE   PO4 3277  16.110  11.243   6.391  0.0789 -0.2783  0.1416
  294POPE   GL1 3278  15.971  11.210   5.957  0.0851 -0.2123  0.1190
  294POPE   GL2 3279  15.587  10.994   5.950  0.2941 -0.0589  0.0167
  294POPE   C1A 3280  16.083  10.943   5.616 -0.1397 -0.1614  0.0695
  294POPE   D2A 3281  16.181  11.004   5.249 -0.2926 -0.0075  0.3806
  294POPE   C3A 3282  15.870  10.842   4.872  0.0186 -0.1032 -0.0344
  294POPE   C4A 3283  15.521  11.088   4.719 -0.1980 -0.0117  0.3062
  294POPE   C1B 3284  15.449  10.748   5.626  0.1167 -0.0994  0.0354
  294POPE   C2B 3285  15.306  10.343   5.358 -0.2629  0.5616 -0.1696
  294POPE   C3B 3286  14.969  10.235   5.005  0.1217  0.4084  0.3416
  294POPE   C4B 3287  14.796   9.877   5.019  0.0544 -0.0996 -0.0777
  295POPS   CNO 3288   7.583  15.412   5.809  0.2110  0.1034  0.2531
  295POPS   PO4 3289   7.501  15.622   6.159 -0.1397  0.2279 -0.2337
  295POPS   GL1 3290   7.119  15.638   5.871 -0.1495  0.0925 -0.0619
  295POPS   GL2 3291   6.687  15.671   5.814  0.1099 -0.0484 -0.2501
  295POPS   C1A 3292   7.114  15.754   5.456  0.3095  0.0450  0.3820
  295POPS   D2A 3293   6.928  15.667   5.088 -0.1377  0.0085 -0.1523
  295POPS   C3A 3294   6.556  15.693   4.870  0.0589 -0.0630 -0.1046
  295POPS   C4A 3295   6.202  15.613   4.876 -0.0657  0.1010  0.2319
  295POPS   C1B 3296   6.732  15.419   5.441  0.1793  0.1961 -0.0832
  295POPS   C2B 3297   6.643  15.231   5.065  0.2116  0.1575  0.0710
  295POPS   C3B 3298   6.630  15.131   4.637 -0.3277 -0.1186 -0.3241
  295POPS   C4B 3299   6.480  15.017   4.258 -0.1742  0.2564 -0.1465
  296POPS   CNO 3300  10.507   2.542   6.379 -0.0015 -0.1453 -0.1247
  296POPS   PO4 3301  10.957   2.627   6.222 -0.2202  0.2362 -0.2320
  296POPS   GL1 3302  11.139   2.777   5.853 -0.0583 -0.0388 -0.0036
  296POPS   GL2 3303  10.864   2.769   5.655  0.0372  0.0643  0.2293
  296POPS   C1A 3304  11.385   2.968   5.548 -0.1157 -0.1338  0.1126
  296POPS   D2A 3305  11.327   3.196   5.218 -0.2776  0.1946 -0.2714
  296POPS   C3A 3306  11.486   3.339   4.794  0.2153 -0.1829  0.3706
  296POPS   C4A 3307  11.320   3.680   4.483 -0.0005 -0.1044 -0.2174
  296POPS   C1B 3308  10.988   2.799   5.204  0.0098  0.0501 -0.0822
  296POPS   C2B 3309  10.795   2.705   4.751  0.2066 -0.1323  0.0815
  296POPS   C3B 3310  10.675   3.031   4.481 -0.0228  0.0374 -0.1179
  296POPS   C4B 3311  10.669   3.302   4.180  0.2307 -0.1377 -0.0122
  297CHOL   ROH 3312  13.874   4.065   5.903  0.1065 -0.0075 -0.0170
  297CHOL    R1 3313  13.912   3.791   5.845  0.0043 -0.0324  0.0270
  297CHOL    R2 3314  13.841   3.679   5.602 -0.1309 -0.0670  0.0788
  297CHOL    R3 3315  14.100   3.596   5.601 -0.1537 -0.1374 -0.0112
  297CHOL    R4 3316  13.980   3.473   5.363 -0.2649 -0.1058  0.0339
  297CHOL    R5 3317  14.089   3.370   5.522 -0.2387 -0.1334 -0.0053
  297CHOL    C1 3318  14.304   3.274   5.222 -0.3644 -0.1944 -0.0768
  297CHOL    C2 3319  14.411   3.259   4.806 -0.0815  0.1267  0.1133
  298POSM   NC3 3320  13.349  12.599   6.286 -0.1332  0.0655  0.1506
  298POSM   PO4 3321  13.048  12.383   6.258  0.0222 -0.1213 -0.1411
  298POSM   AM1 3322  12.853  12.510   5.893  0.3456  0.0152 -0.2415
  298POSM   AM2 3323  12.685  12.722   6.074  0.3530 -0.0198 -0.2066
  298POSM   T1A 3324  12.962  12.721   5.524  0.1511  0.1540 -0.2852
  298POSM   C2A 3325  12.967  12.701   5.069 -0.1583  0.1745 -0.2464
  298POSM   C3A 3326  12.958  12.850   4.654  0.1727  0.0074  0.1673
  298POSM   C1B 3327  12.538  12.992   5.708 -0.1049  0.0234 -0.1918
  298POSM   D2B 3328  12.544  12.944   5.293 -0.0928  0.1744 -0.2483
  298POSM   C3B 3329  12.732  13.191   5.077  0.0703  0.1766  0.2142
  298POSM   C4B 3330  12.498  13.508   5.161  0.0554  0.0245  0.0239
  299CHOL   ROH 3331   5.288  15.258   5.816  0.0567 -0.3248  0.0295
  299CHOL    R1 3332   5.495  15.365   5.656 -0.0739  0.0071  0.0757
  299CHOL    R2 3333   5.603  15.228   5.441  0.3039  0.0997  0.1930
  299CHOL    R3 3334   5.539  15.456   5.307 -0.0933 -0.0889  0.0463
  299CHOL    R4 3335   5.706  15.305   5.120  0.1758  0.0825  0.1473
  299CHOL    R5 3336   5.737  15.510   5.184 -0.1834  0.1819  0.0183
  299CHOL    C1 3337   5.707  15.563   4.808 -0.2716 -0.1045 -0.0170
  299CHOL    C2 3338   5.814  15.824   4.648 -0.0239 -0.0577 -0.0616
  300POPC   NC3 3339   9.449  15.660   6.504 -0.1843  0.1062  0.2041
  300POPC   PO4 3340   9.199  15.864   6.278 -0.0749  0.0249  0.4161
  300POPC   GL1 3341   8.940  15.826   5.900 -0.1180 -0.1115 -0.0456
  300POPC   GL2 3342   8.716  15.823   6.104 -0.0482  0.2023 -0.0695
  300POPC   C1A 3343   8.863  15.818   5.494 -0.1554  0.2413  0.1553
  300POPC   D2A 3344   9.104  15.797   5.209 -0.1744  0.0242  0.3033
  300POPC   C3A 3345   8.995  15.898   4.732 -0.3464  0.0779  0.0667
  300POPC   C4A 3346   8.614  16.040   4.526  0.1498 -0.0826 -0.0488
  300POPC   C1B 3347   8.440  16.145   5.815 -0.0900 -0.1519  0.1010
  300POPC   C2B 3348   8.547  16.174   5.390  0.1329 -0.3404  0.0563
  300POPC   C3B 3349   8.881  16.217   5.054  0.2168  0.0587 -0.1723
  300POPC   C4B 3350   9.030  16.359   4.663 -0.0507 -0.0359  0.1994
  301POPE   NH3 3351   3.759  13.243   6.398  0.1301  0.2104  0.1108
  301POPE   PO4 3352   4.168  13.224   6.516  0.1547  0.0126 -0.3074
  301POPE   GL1 3353   4.187  13.356   6.116  0.4233 -0.1152 -0.3183
  301POPE   GL2 3354   4.272  13.095   5.954  0.1890 -0.0879  0.0409
  301POPE   C1A 3355   3.981  13.645   5.732  0.0963 -0.1697 -0.1151
  301POPE   D2A 3356   4.105  13.661   5.255 -0.0374 -0.0891  0.0996
  301POPE   C3A 3357   4.409  13.755   5.039 -0.1987 -0.0481 -0.3620
  301POPE   C4A 3358   4.559  13.834   4.615  0.2185  0.0375 -0.0359
  301POPE   C1B 3359   4.260  13.221   5.538 -0.0066  0.2525 -0.2241
  301POPE   C2B 3360   4.270  13.174   5.034  0.0053  0.3161 -0.2147
  301POPE   C3B 3361   4.155  13.530   4.696  0.1257 -0.2562 -0.1667
  301POPE   C4B 3362   4.212  13.573   4.346 -0.0995  0.1119  0.1486
  302POPE   NH3 3363   2.299  12.023   6.352 -0.0903 -0.0129 -0.0673
  302POPE   PO4 3364   2.182  12.361   6.331  0.1719  0.1138  0.2158
  302POPE   GL1 3365   2.291  12.240   5.885  0.0358  0.1229 -0.2188
  302POPE   GL2 3366   2.330  11.926   5.875 -0.1589 -0.1560  0.0330
  302POPE   C1A 3367   2.539  12.346   5.444 -0.1478 -0.3405 -0.1202
  302POPE   D2A 3368   2.285  12.618   5.156  0.3124 -0.1560 -0.0126
  302POPE   C3A 3369   2.520  12.722   4.746 -0.0227  0.0280  0.2949
  302POPE   C4A 3370   2.660  13.050   4.427  0.2235  0.3838 -0.1903
  302POPE   C1B 3371   2.208  12.012   5.470  0.1884 -0.2027 -0.0327
  302POPE   C2B 3372   2.163  11.812   5.045 -0.0230 -0.3073 -0.0408
  302POPE   C3B 3373   2.088  11.705   4.677  0.2484 -0.0763 -0.0679
  302POPE   C4B 3374   1.845  11.325   4.572  0.0108 -0.0120 -0.1242
  303POPE   NH3 3375  16.582   7.477   6.309 -0.1032  0.1778  0.1746
  303POPE   PO4 3376  16.878   7.831   6.194  0.1962 -0.2060 -0.0794
  303POPE   GL1 3377  16.658   7.804   5.900 -0.1696 -0.0804 -0.0556
  303POPE   GL2 3378  16.497   8.036   5.921  0.1678  0.0085 -0.1548
  303POPE   C1A 3379  16.809   7.814   5.545 -0.1677 -0.0616 -0.0607
  303POPE   D2A 3380  16.731   7.826   5.173  0.0788  0.3550  0.2627
  303POPE   C3A 3381  17.063   7.855   4.799  0.2278  0.2698 -0.1471
  303POPE   C4A 3382  17.096   8.017   4.383 -0.2414  0.0892  0.1072
  303POPE   C1B 3383  16.399   8.265   5.576 -0.0249 -0.1103  0.0213
  303POPE   C2B 3384  16.429   8.252   5.068 -0.1862  0.0697 -0.1611
  303POPE   C3B 3385  16.713   8.175   4.636 -0.0770 -0.0041 -0.2027
  303POPE   C4B 3386  16.821   8.380   4.238 -0.0610  0.1352  0.2611
  304POPE   NH3 3387   6.679   0.885   6.439  0.0465 -0.3601 -0.0581
  304POPE   PO4 3388   6.926   1.030   6.113  0.2464 -0.0578  0.4003
  304POPE   GL1 3389   6.611   0.858   5.970  0.0841 -0.1931 -0.0101
  304POPE   GL2 3390   6.614   0.588   5.885  0.0444 -0.0900  0.1694
  304POPE   C1A 3391   6.366   0.969   5.603  0.1569  0.0702  0.2954
  304POPE   D2A 3392   6.173   1.282   5.199  0.2045  0.0024 -0.1453
  304POPE   C3A 3393   5.924   1.176   4.852 -0.2818 -0.0277 -0.3057
  304POPE   C4A 3394   6.004   0.905   4.468 -0.0405  0.1865 -0.0773
  304POPE   C1B 3395   6.575   0.540   5.445 -0.2609 -0.0399  0.0584
  304POPE   C2B 3396   6.668   0.470   4.997  0.0701  0.1552 -0.2555
  304POPE   C3B 3397   6.700   0.496   4.592 -0.2467 -0.0407  0.1787
  304POPE   C4B 3398   6.796   0.610   4.163  0.2808 -0.0903 -0.0227
  305POPE   NH3 3399   2.824   4.559   6.424  0.0388 -0.1088 -0.0407
  305POPE   PO4 3400   2.772   4.176   6.158  0.0959  0.2882 -0.1006
  305POPE   GL1 3401   2.616   4.013   5.836  0.0800  0.0149 -0.1670
  305POPE   GL2 3402   2.269   3.924   5.791 -0.1696  0.2614 -0.1603
  305POPE   C1A 3403   2.508   3.963   5.351  0.0469  0.2076 -0.0682
  305POPE   D2A 3404   2.441   4.168   4.962 -0.1044  0.1601 -0.0351
  305POPE   C3A 3405   2.221   3.991   4.662  0.3581 -0.0446 -0.0099
  305POPE   C4A 3406   1.967   3.680   4.412 -0.1672  0.0921  0.0928
  305POPE   C1B 3407   1.923   3.881   5.517  0.0418 -0.0539  0.1928
  305POPE   C2B 3408   1.831   3.974   5.106  0.1471  0.0371 -0.0439
  305POPE   C3B 3409   1.685   3.994   4.701  0.3273 -0.0188 -0.0735
  305POPE   C4B 3410   1.668   4.020   4.246 -0.1773  0.2385  0.0362
  306POSM   NC3 3411   3.698   3.395   6.482  0.2260 -0.0955  0.2434
  306POSM   PO4 3412   3.241   3.273   6.405  0.1610  0.0887  0.2105
  306POSM   AM1 3413   3.236   2.967   6.098 -0.0118  0.0698  0.4069
  306POSM   AM2 3414   2.982   2.789   6.177 -0.1879  0.2307 -0.3053
  306POSM   T1A 3415   3.269   2.838   5.761  0.1135  0.0121 -0.2240
  306POSM   C2A 3416   3.124   2.517   5.411  0.0814  0.1112 -0.0665
  306POSM   C3A 3417   3.130   2.510   4.972  0.1081 -0.0530 -0.3431
  306POSM   C1B 3418   2.973   2.344   5.893  0.3195 -0.2192 -0.0174
  306POSM   D2B 3419   3.302   2.089   5.750 -0.3378 -0.3310  0.1551
  306POSM   C3B 3420   3.621   2.371   5.453 -0.0176 -0.1133 -0.1420
  306POSM   C4B 3421   3.907   2.379   5.044 -0.1245 -0.1499  0.0437
  307POPE   NH3 3422   2.197  10.431   6.299  0.2683  0.0852 -0.1417
  307POPE   PO4 3423   2.633  10.501   6.173 -0.2123 -0.0548  0.1002
  307POPE   GL1 3424   2.493  10.157   5.985  0.0404 -0.2039 -0.0381
  307POPE   GL2 3425   2.211  10.252   5.832  0.0319 -0.3056 -0.1941
  307POPE   C1A 3426   2.507   9.994   5.570 -0.2687 -0.0464  0.2310
  307POPE   D2A 3427   2.769   9.981   5.242  0.2446  0.2556  0.0902
  307POPE   C3A 3428   2.591   9.827   4.855  0.3678 -0.0699  0.0063
  307POPE   C4A 3429   2.472   9.809   4.378  0.1949 -0.0515 -0.2343
  307POPE   C1B 3430   2.096   9.841   5.770  0.2012  0.1182  0.0329
  307POPE   C2B 3431   2.154   9.661   5.345 -0.2047 -0.0945 -0.1883
  307POPE   C3B 3432   1.906   9.507   5.220  0.0125 -0.1509  0.2201
  307POPE   C4B 3433   1.553   9.217   5.383 -0.0247  0.1678  0.1346
  308POSM   NC3 3434  13.242   3.342   6.449  0.1260 -0.1948 -0.0205
  308POSM   PO4 3435  13.218   3.730   6.408  0.0327 -0.1680  0.1328
  308POSM   AM1 3436  13.398   3.905   6.002  0.0419 -0.0099 -0.2394
  308POSM   AM2 3437  13.347   4.176   6.015 -0.1726 -0.1666 -0.2343
  308POSM   T1A 3438  13.423   3.931   5.530 -0.2585 -0.2256 -0.1361
  308POSM   C2A 3439  13.570   3.670   5.115 -0.1608 -0.1986 -0.3358
  308POSM   C3A 3440  13.466   3.451   4.769 -0.1202  0.0764  0.1076
  308POSM   C1B 3441  13.074   4.313   5.621 -0.3257  0.1917  0.1190
  308POSM   D2B 3442  12.979   4.671   5.602  0.2654  0.0419  0.2004
  308POSM   C3B 3443  12.835   4.860   5.220 -0.1530 -0.2912 -0.0656
  308POSM   C4B 3444  12.652   4.976   4.771 -0.3228 -0.1787  0.1852
  309POSM   NC3 3445  11.444   1.649   6.486 -0.0636 -0.2192  0.0467
  309POSM   PO4 3446  11.368   1.929   6.308 -0.0752  0.1663 -0.0631
  309POSM   AM1 3447  11.109   2.027   5.989  0.2865 -0.1694  0.0073
  309POSM   AM2 3448  11.229   2.249   5.810  0.1612 -0.1389  0.1524
  309POSM   T1A 3449  10.973   1.831   5.591 -0.2730 -0.0273 -0.1721
  309POSM   C2A 3450  11.261   1.463   5.341 -0.0873 -0.1306  0.0640
  309POSM   C3A 3451  11.286   1.378   4.845 -0.3641 -0.1244 -0.0381
  309POSM   C1B 3452  11.373   2.479   5.448 -0.0081  0.1824  0.0459
  309POSM   D2B 3453  11.562   2.379   5.116  0.1200  0.0685 -0.2722
  309POSM   C3B 3454  11.547   2.444   4.660 -0.3271  0.3690  0.0416
  309POSM   C4B 3455  11.496   2.118   4.321  0.2418 -0.0761 -0.3498
  310POPC   NC3 3456  15.519  11.081   6.444  0.0448  0.1044 -0.0230
  310POPC   PO4 3457  15.181  11.378   6.310  0.1064 -0.1735  0.1104
  310POPC   GL1 3458  15.275  11.620   5.875 -0.0092 -0.1198  0.1769
  310POPC   GL2 3459  15.351  11.875   5.975  0.2151  0.0670 -0.2724
  310POPC   C1A 3460  14.989  11.705   5.601  0.2823  0.1344 -0.2227
  310POPC   D2A 3461  14.853  11.674   5.154  0.4300  0.0088 -0.0217
  310POPC   C3A 3462  15.132  11.791   4.763  0.0980  0.0303 -0.0624
  310POPC   C4A 3463  15.362  11.774   4.299  0.1733  0.2863  0.3615
  310POPC   C1B 3464  15.621  12.141   5.664  0.0414 -0.0913 -0.1930
  310POPC   C2B 3465  15.861  11.961   5.345 -0.4840 -0.2201 -0.1743
  310POPC   C3B 3466  15.987  11.981   4.945  0.0436  0.0933  0.2007
  310POPC   C4B 3467  15.969  11.715   4.528  0.0899  0.0250  0.2542
  311POPS   CNO 3468  10.386  15.843   6.647  0.5059 -0.0053  0.1956
  311POPS   PO4 3469  10.354  15.820   6.220  0.0257  0.0969 -0.1795
  311POPS   GL1 3470  10.567  15.911   5.822  0.0216  0.2277 -0.2846
  311POPS   GL2 3471  10.902  15.820   5.853 -0.1887 -0.0769 -0.0556
  311POPS   C1A 3472  10.672  15.802   5.374 -0.0551 -0.2532  0.2077
  311POPS   D2A 3473  10.738  15.398   5.134  0.2379 -0.3559  0.0096
  311POPS   C3A 3474  10.806  15.279   4.748 -0.1080  0.0189 -0.1040
  311POPS   C4A 3475  11.114  15.012   4.404 -0.0241  0.3450  0.2325
  311POPS   C1B 3476  11.137  16.014   5.479  0.0410  0.0138 -0.0053
  311POPS   C2B 3477  11.403  16.133   5.170  0.0734  0.0485  0.3159
  311POPS   C3B 3478  11.384  16.015   4.736 -0.0258 -0.1106 -0.1039
  311POPS   C4B 3479  11.593  15.880   4.235 -0.3778 -0.0813 -0.0843
  312POSM   NC3 3480   2.737   5.092   6.306 -0.0556 -0.1675  0.0126
  312POSM   PO4 3481   3.086   5.195   6.238 -0.1074  0.0164  0.1421
  312POSM   AM1 3482   3.075   4.901   5.923 -0.0670 -0.3707  0.0510
  312POSM   AM2 3483   2.803   4.702   5.977  0.1014 -0.3395  0.0093
  312POSM   T1A 3484   3.010   4.978   5.529 -0.1706 -0.1495 -0.1395
  312POSM   C2A 3485   2.916   5.003   5.171 -0.0434  0.5012  0.0060
  312POSM   C3A 3486   2.723   4.966   4.841  0.3116 -0.1585  0.1142
  312POSM   C1B 3487   2.675   4.587   5.574 -0.0955  0.1817 -0.1122
  312POSM   D2B 3488   2.423   4.716   5.181  0.0471 -0.1647 -0.1315
  312POSM   C3B 3489   2.312   4.593   4.708 -0.0523 -0.2171 -0.0526
  312POSM   C4B 3490   2.140   4.363   4.422 -0.0001 -0.2235 -0.2854
  313POPC   NC3 3491  11.642  15.748   6.400  0.2761 -0.0350  0.0563
  313POPC   PO4 3492  11.168  15.821   6.307  0.1545  0.2607 -0.2034
  313POPC   GL1 3493  11.429  15.948   5.943  0.1555  0.2053 -0.2921
  313POPC   GL2 3494  11.794  15.905   5.877  0.2238 -0.2962 -0.1082
  313POPC   C1A 3495  11.538  16.293   5.640  0.1367  0.2333  0.0335
  313POPC   D2A 3496  11.369  16.649   5.548 -0.1665 -0.0204  0.1548
  313POPC   C3A 3497  11.076  16.648   5.319 -0.1591 -0.2273 -0.1236
  313POPC   C4A 3498  10.943  16.235   4.992 -0.1760 -0.1780 -0.2170
  313POPC   C1B 3499  11.917  15.670   5.644 -0.1897  0.2660 -0.1839
  313POPC   C2B 3500  12.244  15.468   5.332  0.1608  0.1491  0.2477
  313POPC   C3B 3501  12.563  15.231   5.110  0.0006  0.2421 -0.1599
  313POPC   C4B 3502  12.769  14.790   5.076  0.3148 -0.0524  0.0839
  314POPS   CNO 3503  11.140  16.502   6.078 -0.0345 -0.0288 -0.0857
  314POPS   PO4 3504  10.748  16.741   6.306 -0.2907  0.2655 -0.0658
  314POPS   GL1 3505  10.643  16.558   5.891  0.0462 -0.2558 -0.2529
  314POPS   GL2 3506  10.415  16.656   5.705 -0.0373  0.0977 -0.2262
  314POPS   C1A 3507  10.746  16.343   5.594  0.1769 -0.2822 -0.2743
  314POPS   D2A 3508  10.597  16.530   5.245 -0.1451 -0.0684  0.3272
  314POPS   C3A 3509  10.644  16.504   4.749  0.0557 -0.0630 -0.0882
  314POPS   C4A 3510  10.757  16.424   4.319 -0.0843  0.2839  0.1569
  314POPS   C1B 3511  10.106  16.713   5.368 -0.0717 -0.0508 -0.1463
  314POPS   C2B 3512   9.940  16.540   5.010 -0.0296 -0.1618 -0.3026
  314POPS   C3B 3513  10.010  16.444   4.602 -0.1066  0.3665 -0.1369
  314POPS   C4B 3514  10.214  16.760   4.309  0.1351 -0.3634 -0.0423
  315POPC   NC3 3515   5.913  15.181   6.428  0.1484  0.0336  0.1852
  315POPC   PO4 3516   5.556  15.454   6.328  0.1297 -0.0721  0.2163
  315POPC   GL1 3517   5.738  15.636   6.026 -0.1082  0.0478 -0.0258
  315POPC   GL2 3518   5.448  15.898   5.980 -0.1612  0.0332  0.1705
  315POPC   C1A 3519   6.021  15.666   5.710 -0.0481  0.1564  0.2883
  315POPC   D2A 3520   6.278  15.688   5.400 -0.1885  0.0889  0.0571
  315POPC   C3A 3521   6.606  15.886   5.378  0.0530 -0.0482 -0.0729
  315POPC   C4A 3522   6.885  16.179   5.278  0.0368 -0.1552 -0.1401
  315POPC   C1B 3523   5.649  15.919   5.562 -0.0052  0.0592 -0.0300
  315POPC   C2B 3524   5.833  16.016   5.205 -0.0395 -0.4272 -0.1439
  315POPC   C3B 3525   5.738  16.337   4.864 -0.0254  0.0755  0.1726
  315POPC   C4B 3526   5.341  16.534   4.497 -0.3616  0.3351 -0.0679
  316POPC   NC3 3527   8.806   1.589   6.370 -0.0327 -0.3031  0.1434
  316POPC   PO4 3528   8.446   1.547   6.270 -0.0214 -0.3243 -0.2438
  316POPC   GL1 3529   8.361   1.688   5.804  0.3043 -0.0661 -0.1758
  316POPC   GL2 3530   7.964   1.716   5.734  0.1649 -0.1455 -0.1603
  316POPC   C1A 3531   8.462   1.679   5.452 -0.1241  0.0074 -0.3650
  316POPC   D2A 3532   8.519   1.691   5.116  0.1154  0.4381 -0.0596
  316POPC   C3A 3533   8.607   1.729   4.681  0.0871  0.1609 -0.1005
  316POPC   C4A 3534   8.630   1.504   4.267  0.0631  0.0741  0.0084
  316POPC   C1B 3535   7.891   1.888   5.390  0.1880 -0.3680  0.4293
  316POPC   C2B 3536   7.733   2.237   5.117  0.1896  0.0348  0.1499
  316POPC   C3B 3537   7.698   2.247   4.681 -0.3365  0.1255  0.0232
  316POPC   C4B 3538   7.408   2.248   4.378 -0.0251 -0.1429  0.0184
  317POPE   NH3 3539  16.197   5.037   6.211 -0.1719 -0.0389 -0.0741
  317POPE   PO4 3540  15.829   5.264   6.286 -0.1499 -0.0602 -0.2261
  317POPE   GL1 3541  15.849   5.328   5.849  0.2813  0.0688  0.1877
  317POPE   GL2 3542  16.120   5.179   5.624 -0.0759  0.0549  0.1802
  317POPE   C1A 3543  15.713   5.516   5.476  0.1033 -0.1210 -0.0332
  317POPE   D2A 3544  15.619   5.702   5.105  0.0730 -0.0086  0.1692
  317POPE   C3A 3545  15.487   5.532   4.768  0.1179 -0.5171 -0.3247
  317POPE   C4A 3546  15.192   5.102   4.691 -0.1569 -0.1666 -0.0805
  317POPE   C1B 3547  16.104   5.317   5.205 -0.3784 -0.0225  0.3948
  317POPE   C2B 3548  16.018   5.534   4.912  0.0375  0.2135 -0.0502
  317POPE   C3B 3549  15.809   5.844   4.609 -0.2495 -0.2828 -0.1532
  317POPE   C4B 3550  15.338   5.893   4.308 -0.1932 -0.0194  0.1373
  318CHOL   ROH 3551   3.818  13.126   5.887 -0.0029  0.3104  0.0117
  318CHOL    R1 3552   3.710  13.118   5.626 -0.0414  0.4766  0.0190
  318CHOL    R2 3553   3.724  13.331   5.452  0.4410  0.4028 -0.0463
  318CHOL    R3 3554   3.837  13.148   5.286  0.0196  0.0833  0.0037
  318CHOL    R4 3555   3.713  13.345   5.107  0.4925  0.3392 -0.0500
  318CHOL    R5 3556   3.681  13.129   5.104 -0.0218  0.4042  0.0014
  318CHOL    C1 3557   3.813  13.181   4.750  0.1269  0.0023 -0.0052
  318CHOL    C2 3558   3.619  12.935   4.621  0.1781 -0.0021 -0.1887
  319POPC   NC3 3559   1.538   8.532   6.565 -0.1086 -0.2501 -0.1488
  319POPC   PO4 3560   1.828   8.406   6.269  0.3403  0.0482 -0.1017
  319POPC   GL1 3561   1.762   8.133   6.039 -0.0574 -0.1652 -0.2313
  319POPC   GL2 3562   2.121   8.007   5.975 -0.0459  0.4794  0.0266
  319POPC   C1A 3563   1.454   7.844   5.831 -0.1891  0.0379 -0.2970
  319POPC   D2A 3564   1.110   7.717   5.546  0.0022  0.1998  0.1168
  319POPC   C3A 3565   1.057   7.580   5.089  0.2619  0.0221 -0.1845
  319POPC   C4A 3566   0.956   7.687   4.634 -0.0268 -0.5445  0.1238
  319POPC   C1B 3567   2.318   8.013   5.576 -0.3004  0.1553  0.0677
  319POPC   C2B 3568   2.269   8.103   5.239  0.2395 -0.1040 -0.2818
  319POPC   C3B 3569   2.444   8.117   4.901 -0.0456  0.0654 -0.1798
  319POPC   C4B 3570   2.499   8.301   4.558 -0.4799 -0.0375  0.3904
  320POSM   NC3 3571   1.421   9.430   6.445 -0.1603  0.1985 -0.1427
  320POSM   PO4 3572   1.485   9.009   6.664 -0.0204  0.1685 -0.0640
  320POSM   AM1 3573   1.322   8.943   6.290  0.0371 -0.1752 -0.4860
  320POSM   AM2 3574   1.085   8.790   6.273  0.2936  0.0155  0.0022
  320POSM   T1A 3575   1.568   8.928   5.900  0.2369 -0.1207  0.1207
  320POSM   C2A 3576   1.733   8.627   5.630 -0.0742  0.0830 -0.0167
  320POSM   C3A 3577   1.877   8.297   5.583  0.0802 -0.0972  0.0380
  320POSM   C1B 3578   1.100   8.838   5.870 -0.2430  0.0747  0.0224
  320POSM   D2B 3579   1.110   8.883   5.450  0.3246 -0.3598  0.0602
  320POSM   C3B 3580   1.443   8.768   5.242 -0.3461  0.0158 -0.1711
  320POSM   C4B 3581   1.781   8.441   5.087 -0.1552  0.0262 -0.0933
  321POPE   NH3 3582   2.712   3.094   6.417  0.3278  0.2005  0.3574
  321POPE   PO4 3583   2.400   2.685   6.432  0.0742  0.1601  0.3951
  321POPE   GL1 3584   2.561   2.669   5.966 -0.3823 -0.1001 -0.1908
  321POPE   GL2 3585   2.698   2.978   5.855  0.2758  0.2253  0.0017
  321POPE   C1A 3586   2.628   2.466   5.549 -0.0930  0.2118 -0.1036
  321POPE   D2A 3587   2.616   2.613   5.065 -0.3916 -0.0824 -0.4125
  321POPE   C3A 3588   2.720   2.488   4.679  0.3136  0.0483  0.1308
  321POPE   C4A 3589   2.568   2.274   4.466 -0.0015 -0.1364 -0.0271
  321POPE   C1B 3590   2.795   2.981   5.397  0.0114 -0.1039 -0.1033
  321POPE   C2B 3591   2.919   3.015   4.958  0.0731  0.0003 -0.0569
  321POPE   C3B 3592   2.836   2.996   4.555  0.0272  0.0037  0.0800
  321POPE   C4B 3593   2.570   3.186   4.175 -0.3076 -0.1843  0.0443
  322POPS   CNO 3594  11.919  16.185   6.322  0.0432 -0.1215 -0.3200
  322POPS   PO4 3595  12.420  16.194   6.480 -0.0718  0.2386  0.1652
  322POPS   GL1 3596  12.359  16.031   6.053 -0.0287  0.0672 -0.1557
  322POPS   GL2 3597  12.246  16.283   5.948  0.0038 -0.0632 -0.1695
  322POPS   C1A 3598  12.449  15.752   5.693 -0.2278  0.1103  0.0591
  322POPS   D2A 3599  12.787  15.678   5.393 -0.1032 -0.1428  0.2113
  322POPS   C3A 3600  12.819  15.798   4.982 -0.0675 -0.0611 -0.0706
  322POPS   C4A 3601  12.940  15.757   4.602 -0.1134 -0.0782  0.1904
  322POPS   C1B 3602  12.064  16.205   5.584  0.0118 -0.3193  0.1717
  322POPS   C2B 3603  11.907  16.066   5.325  0.1856  0.0517  0.1216
  322POPS   C3B 3604  11.862  16.153   4.942 -0.3302 -0.1957  0.3239
  322POPS   C4B 3605  12.015  16.034   4.501 -0.0308 -0.3908  0.0447
  323POPE   NH3 3606   1.501   7.866   6.470  0.1520 -0.2813  0.3919
  323POPE   PO4 3607   1.162   8.235   6.451 -0.0850 -0.0556  0.2549
  323POPE   GL1 3608   1.029   7.840   6.091  0.3652 -0.0324  0.0081
  323POPE   GL2 3609   0.742   7.844   6.010  0.2472  0.0481  0.0532
  323POPE   C1A 3610   0.905   7.305   5.929  0.4649  0.0951  0.0739
  323POPE   D2A 3611   0.647   7.080   5.574 -0.0393 -0.0657  0.0456
  323POPE   C3A 3612   0.680   6.993   5.121  0.0127  0.2169  0.1900
  323POPE   C4A 3613   0.845   6.867   4.591  0.1326  0.0339 -0.0484
  323POPE   C1B 3614   0.648   7.659   5.726 -0.4299 -0.2084 -0.2077
  323POPE   C2B 3615   0.566   7.468   5.259 -0.1378 -0.2675 -0.1718
  323POPE   C3B 3616   0.655   7.341   4.783  0.0023  0.2126 -0.2784
  323POPE   C4B 3617   0.672   7.431   4.376  0.1993 -0.0834  0.1894
  324POPE   NH3 3618  15.713   7.388   5.979  0.2267 -0.0828 -0.2058
  324POPE   PO4 3619  16.128   7.625   6.108 -0.1336  0.3502 -0.0177
  324POPE   GL1 3620  16.048   7.806   5.838 -0.0270 -0.3355  0.0884
  324POPE   GL2 3621  15.832   8.080   5.892  0.0952  0.1903 -0.0623
  324POPE   C1A 3622  16.213   7.794   5.494 -0.1639 -0.2407 -0.1462
  324POPE   D2A 3623  16.233   7.693   5.054  0.4574 -0.0480 -0.3641
  324POPE   C3A 3624  16.526   7.674   4.654  0.2102 -0.0955 -0.0225
  324POPE   C4A 3625  16.825   7.543   4.539  0.2485  0.1502 -0.1623
  324POPE   C1B 3626  15.895   8.142   5.475  0.1071  0.2103  0.1979
  324POPE   C2B 3627  15.970   8.141   5.025 -0.1574 -0.0548 -0.0686
  324POPE   C3B 3628  15.913   8.376   4.494 -0.1800  0.0209  0.2273
  324POPE   C4B 3629  15.912   8.876   4.452  0.0493  0.2819 -0.4068
  325POPC   NC3 3630   7.203   0.194   6.950  0.0609  0.0806 -0.1504
  325POPC   PO4 3631   7.265   0.226   6.427  0.2182  0.0953 -0.0763
  325POPC   GL1 3632   7.133   0.016   6.080  0.2232  0.0870  0.4107
  325POPC   GL2 3633   6.795   0.081   5.926  0.1122  0.1238 -0.0691
  325POPC   C1A 3634   7.201  -0.046   5.655 -0.1360 -0.0196 -0.1773
  325POPC   D2A 3635   7.292  -0.103   5.245 -0.1029 -0.1068 -0.4073
  325POPC   C3A 3636   7.055  -0.183   4.916 -0.2011  0.5185  0.0223
  325POPC   C4A 3637   6.833  -0.506   4.789  0.2163 -0.3318  0.1527
  325POPC   C1B 3638   7.076   0.437   5.620 -0.0165 -0.2784  0.0899
  325POPC   C2B 3639   7.114   0.406   5.250  0.1286 -0.0317  0.1065
  325POPC   C3B 3640   7.096   0.759   4.905 -0.1170 -0.3305 -0.4507
  325POPC   C4B 3641   7.031   0.863   4.566 -0.1860  0.0655  0.4333
  326POPE   NH3 3642  10.217  16.292   6.117 -0.0001 -0.3167 -0.1797
  326POPE   PO4 3643   9.787  16.405   6.218  0.3679 -0.0750  0.3107
  326POPE   GL1 3644   9.878  16.503   5.807 -0.0165 -0.1878  0.1623
  326POPE   GL2 3645   9.984  16.853   5.903 -0.4878  0.0541  0.0655
  326POPE   C1A 3646   9.796  16.301   5.457  0.1862 -0.0162  0.1866
  326POPE   D2A 3647   9.849  15.988   5.148 -0.1053 -0.0793 -0.0203
  326POPE   C3A 3648   9.563  15.650   5.103 -0.1153  0.0248  0.0250
  326POPE   C4A 3649   9.383  15.291   5.047 -0.0070  0.0246  0.2151
  326POPE   C1B 3650   9.847  17.083   5.597  0.0479 -0.3209 -0.0864
  326POPE   C2B 3651   9.761  17.047   5.173  0.1496 -0.0874 -0.2473
  326POPE   C3B 3652   9.474  17.121   4.790 -0.1233 -0.0212 -0.1822
  326POPE   C4B 3653   9.175  16.976   4.619 -0.1541 -0.1991 -0.0202
  327POPE   NH3 3654  13.431  13.480   6.104 -0.0779 -0.3202  0.2378
  327POPE   PO4 3655  13.526  13.087   6.299  0.0337  0.0880 -0.2232
  327POPE   GL1 3656  13.408  12.983   5.893 -0.1516 -0.1602  0.1559
  327POPE   GL2 3657  13.082  13.063   5.948  0.1512  0.0926 -0.1024
  327POPE   C1A 3658  13.380  12.953   5.465  0.0775 -0.1030  0.1040
  327POPE   D2A 3659  13.306  13.054   5.058 -0.3044  0.3116 -0.0907
  327POPE   C3A 3660  13.674  13.161   4.709  0.0123 -0.1095  0.3099
  327POPE   C4A 3661  13.806  13.140   4.380 -0.0699  0.2264 -0.0795
  327POPE   C1B 3662  12.921  13.317   5.614 -0.2233  0.1100 -0.1336
  327POPE   C2B 3663  12.958  13.559   5.259 -0.1974 -0.1636 -0.1241
  327POPE   C3B 3664  13.206  13.523   4.988 -0.0206  0.0980 -0.1621
  327POPE   C4B 3665  13.187  13.691   4.583 -0.2788 -0.2543  0.0945
  328POSM   NC3 3666  14.402   3.438   6.868  0.2184  0.1919  0.3213
  328POSM   PO4 3667  14.511   3.795   6.715  0.2147 -0.1209 -0.3177
  328POSM   AM1 3668  14.729   3.616   6.382  0.0824  0.0640  0.0554
  328POSM   AM2 3669  14.665   3.257   6.330 -0.1416  0.1253 -0.1208
  328POSM   T1A 3670  14.912   3.680   6.034  0.0803  0.0906 -0.4909
  328POSM   C2A 3671  14.757   3.553   5.542 -0.1139 -0.1217 -0.1618
  328POSM   C3A 3672  14.738   3.194   5.358  0.0959 -0.3502 -0.4038
  328POSM   C1B 3673  14.933   3.216   5.864  0.1684  0.1922  0.2195
  328POSM   D2B 3674  15.216   3.400   5.588 -0.1733  0.1550  0.1563
  328POSM   C3B 3675  15.152   3.856   5.331  0.2219 -0.0651  0.1229
  328POSM   C4B 3676  14.799   4.127   5.071 -0.1473  0.0232  0.1026
  329POPS   CNO 3677   9.591   1.917   5.995 -0.0779  0.2637 -0.1510
  329POPS   PO4 3678   9.721   1.517   6.251 -0.0643 -0.3396 -0.1514
  329POPS   GL1 3679   9.689   1.342   5.915  0.3777 -0.0082  0.2252
  329POPS   GL2 3680   9.508   1.150   5.757  0.1243  0.4902  0.1854
  329POPS   C1A 3681   9.783   1.406   5.413 -0.0539 -0.2210  0.1215
  329POPS   D2A 3682   9.779   1.472   4.908  0.2165  0.0160 -0.1473
  329POPS   C3A 3683   9.703   1.152   4.642  0.0430  0.1662 -0.0920
  329POPS   C4A 3684   9.599   1.175   4.279  0.2432  0.2853 -0.2887
  329POPS   C1B 3685   9.223   1.261   5.479 -0.4024  0.1588  0.3286
  329POPS   C2B 3686   9.336   1.451   5.141 -0.2545 -0.0039  0.0806
  329POPS   C3B 3687   9.300   1.468   4.730 -0.2300 -0.1053 -0.3943
  329POPS   C4B 3688   9.087   1.763   4.457  0.0852 -0.1642  0.2321
  330POPE   NH3 3689   7.794  16.044   6.315  0.0082 -0.2616  0.0463
  330POPE   PO4 3690   7.689  16.501   6.294  0.3115 -0.2659 -0.0707
  330POPE   GL1 3691   7.640  16.418   5.976 -0.0117 -0.2736  0.4024
  330POPE   GL2 3692   7.949  16.260   5.877  0.3316 -0.1607  0.0709
  330POPE   C1A 3693   7.745  16.502   5.461  0.1779 -0.1923 -0.0605
  330POPE   D2A 3694   7.765  16.466   5.036 -0.0767 -0.2891  0.1719
  330POPE   C3A 3695   7.472  16.536   4.739 -0.0958  0.1109 -0.1095
  330POPE   C4A 3696   7.152  16.868   4.681 -0.2018  0.0126  0.2033
  330POPE   C1B 3697   8.082  16.114   5.479  0.2778  0.0683 -0.1568
  330POPE   C2B 3698   7.974  15.726   5.099 -0.3004  0.0466  0.2484
  330POPE   C3B 3699   8.056  15.952   4.748 -0.1000  0.4071  0.0084
  330POPE   C4B 3700   7.829  16.283   4.507 -0.0246 -0.1767  0.0731
  331CHOL   ROH 3701  14.660  13.079   5.978 -0.2257 -0.0597  0.0693
  331CHOL    R1 3702  14.620  13.145   5.705 -0.0533 -0.0450  0.0471
  331CHOL    R2 3703  14.793  13.308   5.565  0.0657 -0.0845  0.1499
  331CHOL    R3 3704  14.802  13.098   5.393  0.1151 -0.0815  0.1482
  331CHOL    R4 3705  14.872  13.331   5.230 -0.1728 -0.0212  0.0963
  331CHOL    R5 3706  14.715  13.186   5.188 -0.0912 -0.1468  0.2027
  331CHOL    C1 3707  14.926  13.146   4.872 -0.2652  0.0184  0.0635
  331CHOL    C2 3708  15.026  13.167   4.511 -0.0089  0.1134 -0.0915
  332POSM   NC3 3709   0.124   9.176   6.516 -0.2313 -0.2730  0.2145
  332POSM   PO4 3710  -0.244   9.318   6.508  0.4949 -0.0073  0.0451
  332POSM   AM1 3711  -0.087   9.411   6.145  0.2174  0.0329  0.0223
  332POSM   AM2 3712   0.233   9.561   6.215 -0.1221  0.1415 -0.0525
  332POSM   T1A 3713  -0.094   9.595   5.751  0.2388 -0.3253  0.1716
  332POSM   C2A 3714  -0.175   9.611   5.306 -0.0832  0.1104  0.0256
  332POSM   C3A 3715  -0.262   9.574   4.875 -0.2781  0.1256  0.1139
  332POSM   C1B 3716   0.325   9.749   5.830  0.3296 -0.2359 -0.0797
  332POSM   D2B 3717   0.572   9.544   5.389  0.1105  0.2201  0.1093
  332POSM   C3B 3718   0.722   9.583   4.906 -0.0646  0.0993 -0.0148
  332POSM   C4B 3719   0.871   9.682   4.438  0.1380  0.1558  0.1802
  333POPS   CNO 3720   2.315  10.873   6.469 -0.2886  0.1654 -0.0175
  333POPS   PO4 3721   2.449  11.276   6.226  0.2077  0.1173 -0.2189
  333POPS   GL1 3722   2.086  11.572   6.102  0.0469 -0.0056 -0.1492
  333POPS   GL2 3723   1.837  11.393   6.036 -0.1721  0.1135 -0.2526
  333POPS   C1A 3724   1.933  11.650   5.647 -0.0608 -0.0849  0.1836
  333POPS   D2A 3725   1.833  11.469   5.160 -0.0232 -0.1866 -0.0653
  333POPS   C3A 3726   1.900  11.022   4.965  0.3645  0.1478 -0.0955
  333POPS   C4A 3727   2.169  10.690   4.765 -0.0243  0.1379  0.5125
  333POPS   C1B 3728   1.851  11.098   5.731  0.2238  0.1819 -0.0413
  333POPS   C2B 3729   2.028  10.954   5.467  0.0522  0.3203 -0.0260
  333POPS   C3B 3730   2.037  10.495   5.280  0.1601  0.2311 -0.0270
  333POPS   C4B 3731   2.290  10.157   5.072  0.3327 -0.0189  0.2247
  334POSM   NC3 3732   1.420   6.724   7.184 -0.3904  0.0288 -0.1530
  334POSM   PO4 3733   1.710   7.118   7.078  0.3472 -0.0608 -0.1093
  334POSM   AM1 3734   1.611   6.821   6.730  0.2428  0.1556 -0.3454
  334POSM   AM2 3735   1.388   7.020   6.644  0.1909  0.1943 -0.0752
  334POSM   T1A 3736   1.489   6.491   6.428 -0.0761  0.0239 -0.3921
  334POSM   C2A 3737   1.289   6.363   5.925  0.1217  0.0526  0.0462
  334POSM   C3A 3738   1.001   6.036   5.728 -0.0196  0.1748  0.2223
  334POSM   C1B 3739   1.216   7.006   6.209  0.0851 -0.0102  0.0538
  334POSM   D2B 3740   1.089   6.838   5.800  0.1804  0.3285 -0.1790
  334POSM   C3B 3741   1.128   7.093   5.468 -0.0333 -0.1148 -0.0000
  334POSM   C4B 3742   1.235   7.078   5.012 -0.1013 -0.2244  0.2282
  335POPS   CNO 3743   7.229  15.267   6.421  0.1730 -0.4075  0.0661
  335POPS   PO4 3744   6.788  15.312   6.312  0.3100  0.2929 -0.1402
  335POPS   GL1 3745   6.789  15.068   5.929  0.2715 -0.1047  0.2673
  335POPS   GL2 3746   6.489  15.093   5.748  0.1346 -0.2120  0.1271
  335POPS   C1A 3747   7.201  15.024   5.624  0.3108  0.4619 -0.1105
  335POPS   D2A 3748   7.200  15.160   5.245 -0.3768  0.3426 -0.0204
  335POPS   C3A 3749   7.166  15.057   4.820  0.1868 -0.2947 -0.0311
  335POPS   C4A 3750   7.468  15.243   4.483  0.2514 -0.0102 -0.1334
  335POPS   C1B 3751   6.554  14.856   5.423 -0.1793 -0.2425  0.2952
  335POPS   C2B 3752   6.719  14.732   5.003  0.2545 -0.0014 -0.3053
  335POPS   C3B 3753   6.837  14.633   4.615 -0.0874  0.0923  0.0894
  335POPS   C4B 3754   6.758  14.257   4.401 -0.2553  0.0032 -0.1309
  336CHOL   ROH 3755   2.280   4.343   5.554 -0.1436  0.1320 -0.0849
  336CHOL    R1 3756   2.104   4.332   5.333 -0.2715  0.0689  0.0187
  336CHOL    R2 3757   1.880   4.492   5.313 -0.1727  0.2128  0.0060
  336CHOL    R3 3758   1.990   4.560   5.073 -0.2477 -0.0657 -0.1108
  336CHOL    R4 3759   1.702   4.602   5.037 -0.2341  0.0955 -0.0015
  336CHOL    R5 3760   1.833   4.482   4.911 -0.3798 -0.0998  0.0352
  336CHOL    C1 3761   1.702   4.730   4.653 -0.3402 -0.2342 -0.1155
  336CHOL    C2 3762   1.339   4.883   4.488 -0.0073 -0.0071 -0.0257
  337POPS   CNO 3763   1.905  12.894   6.346  0.0916  0.2361 -0.2881
  337POPS   PO4 3764   2.159  12.874   6.045  0.0652 -0.3383 -0.0069
  337POPS   GL1 3765   2.050  12.811   5.620 -0.1204  0.2415 -0.0677
  337POPS   GL2 3766   2.445  12.811   5.596 -0.2657  0.1323  0.0714
  337POPS   C1A 3767   1.801  12.811   5.137  0.1299 -0.0498 -0.0169
  337POPS   D2A 3768   1.538  12.517   4.880  0.1609 -0.2182  0.0662
  337POPS   C3A 3769   1.152  12.331   4.742  0.0381 -0.1095  0.0008
  337POPS   C4A 3770   0.666  12.357   4.812  0.2974 -0.1462  0.2644
  337POPS   C1B 3771   2.267  13.087   5.255 -0.0688  0.4451 -0.1847
  337POPS   C2B 3772   2.183  13.073   4.791 -0.0449  0.1515 -0.2349
  337POPS   C3B 3773   2.213  12.944   4.261 -0.0068  0.2730 -0.1415
  337POPS   C4B 3774   2.474  12.721   4.097  0.0957 -0.1393  0.0795
  338POPS   CNO 3775  12.093  13.938   6.542  0.1914 -0.3555 -0.0058
  338POPS   PO4 3776  12.447  14.113   6.617  0.3024 -0.1082 -0.2181
  338POPS   GL1 3777  12.417  14.182   6.095  0.1713  0.1467 -0.3167
  338POPS   GL2 3778  12.195  13.980   6.002 -0.2891 -0.1032 -0.2071
  338POPS   C1A 3779  12.547  14.256   5.773  0.3151  0.3094 -0.0106
  338POPS   D2A 3780  12.571  14.677   5.598 -0.0008  0.2140 -0.1039
  338POPS   C3A 3781  12.352  14.886   5.876  0.0636  0.3543 -0.0746
  338POPS   C4A 3782  12.287  15.223   5.753 -0.1753  0.1406 -0.0910
  338POPS   C1B 3783  12.272  13.878   5.595 -0.1506 -0.1265  0.2430
  338POPS   C2B 3784  12.122  13.853   5.238  0.2422  0.0676 -0.0850
  338POPS   C3B 3785  12.178  13.742   4.867 -0.0367 -0.0805  0.0987
  338POPS   C4B 3786  12.371  13.658   4.417 -0.2345  0.0624 -0.1221
  339POPE   NH3 3787   9.205  16.337   6.222  0.0696  0.2278  0.0152
  339POPE   PO4 3788   9.026  16.787   6.291 -0.0154  0.0670 -0.1021
  339POPE   GL1 3789   8.821  16.620   5.917 -0.2403 -0.1678 -0.2984
  339POPE   GL2 3790   8.875  16.318   5.760  0.0958 -0.0549  0.0990
  339POPE   C1A 3791   8.922  16.803   5.588 -0.0093  0.1822 -0.0506
  339POPE   D2A 3792   8.680  16.937   5.295  0.1654  0.1607  0.0138
  339POPE   C3A 3793   8.557  16.584   4.979 -0.0197  0.0504 -0.5533
  339POPE   C4A 3794   8.235  16.258   5.057 -0.0223 -0.2701  0.1820
  339POPE   C1B 3795   9.081  16.328   5.522 -0.2231  0.1414 -0.0999
  339POPE   C2B 3796   9.377  16.198   5.183 -0.1420  0.3008 -0.4848
  339POPE   C3B 3797   9.468  16.073   4.784  0.2798  0.0033 -0.2575
  339POPE   C4B 3798   9.805  15.938   4.416  0.2305 -0.2304  0.1535
  340POPS   CNO 3799   2.884   3.377   6.808  0.1823  0.1455  0.2772
  340POPS   PO4 3800   2.801   3.631   6.399  0.1233  0.2783  0.0618
  340POPS   GL1 3801   2.844   3.423   6.003  0.4408  0.1664 -0.0589
  340POPS   GL2 3802   2.531   3.456   6.035 -0.0743 -0.0343 -0.2990
  340POPS   C1A 3803   2.838   3.460   5.555 -0.0527 -0.3137  0.0611
  340POPS   D2A 3804   2.733   3.397   5.179  0.0062  0.1467  0.0674
  340POPS   C3A 3805   2.706   3.753   4.786 -0.2116  0.1415  0.0682
  340POPS   C4A 3806   2.686   4.087   4.428  0.1602 -0.3555  0.0369
  340POPS   C1B 3807   2.415   3.292   5.681  0.1484 -0.0810 -0.1439
  340POPS   C2B 3808   2.280   3.540   5.352  0.1445  0.1130 -0.0163
  340POPS   C3B 3809   2.194   3.592   5.031  0.2822  0.1311 -0.1147
  340POPS   C4B 3810   1.777   3.532   4.820  0.2098  0.0778 -0.4689
  341POPC   NC3 3811  15.656  10.517   6.365 -0.1221 -0.1449  0.0849
  341POPC   PO4 3812  15.948  10.789   6.459  0.1575 -0.0785 -0.0732
  341POPC   GL1 3813  16.194  10.737   6.074  0.0192 -0.3929 -0.0919
  341POPC   GL2 3814  16.400  10.994   5.991  0.2496  0.2068  0.1204
  341POPC   C1A 3815  16.346  10.431   5.804 -0.1277 -0.1989 -0.0562
  341POPC   D2A 3816  16.793  10.260   5.646  0.4446 -0.0335 -0.0687
  341POPC   C3A 3817  16.746   9.943   5.341 -0.1936 -0.3567  0.0332
  341POPC   C4A 3818  16.808   9.698   4.998 -0.0478  0.2101  0.0485
  341POPC   C1B 3819  16.558  10.842   5.542  0.0980  0.0864 -0.1766
  341POPC   C2B 3820  16.567  10.649   5.152 -0.0428  0.1574  0.1158
  341POPC   C3B 3821  16.292  10.613   4.815 -0.0190  0.1133 -0.0579
  341POPC   C4B 3822  16.241  10.854   4.381 -0.2056  0.0662 -0.1326
  342POSM   NC3 3823  15.875   9.138   6.625  0.1209 -0.2295  0.0950
  342POSM   PO4 3824  15.818   8.827   6.323  0.0529 -0.3247  0.0797
  342POSM   AM1 3825  16.101   9.199   5.980 -0.0247 -0.1966  0.0478
  342POSM   AM2 3826  15.969   9.367   5.770 -0.1596  0.0607 -0.1283
  342POSM   T1A 3827  16.336   9.109   5.579  0.0249  0.1597  0.3706
  342POSM   C2A 3828  16.348   9.101   5.155  0.0143 -0.2528 -0.0404
  342POSM   C3A 3829  16.355   9.121   4.695  0.1679 -0.3952 -0.0602
  342POSM   C1B 3830  15.956   9.485   5.291 -0.3173  0.1974 -0.0587
  342POSM   D2B 3831  15.821   9.751   5.154  0.0875  0.2515 -0.3573
  342POSM   C3B 3832  15.656   9.949   5.423 -0.0262  0.0464  0.1025
  342POSM   C4B 3833  15.222  10.041   5.725 -0.0414 -0.0626  0.0756
  343POPE   NH3 3834   0.542  11.372   6.360 -0.0451  0.0470  0.1290
  343POPE   PO4 3835   0.236  11.168   6.133 -0.0596  0.0264 -0.1826
  343POPE   GL1 3836   0.028  11.361   5.757 -0.0035 -0.1326  0.0963
  343POPE   GL2 3837  -0.318  11.515   5.723 -0.2211 -0.0139  0.1435
  343POPE   C1A 3838   0.022  11.260   5.290  0.0162 -0.1837  0.1756
  343POPE   D2A 3839  -0.063  11.146   4.817 -0.1314 -0.0231 -0.3055
  343POPE   C3A 3840   0.113  10.793   4.630  0.0253  0.1009 -0.0790
  343POPE   C4A 3841  -0.023  10.444   4.390  0.0417 -0.3288  0.2672
  343POPE   C1B 3842  -0.402  11.626   5.240  0.1536 -0.1557  0.5299
  343POPE   C2B 3843  -0.243  11.644   4.881  0.0599  0.0608 -0.2143
  343POPE   C3B 3844   0.190  11.926   4.906 -0.1242  0.0773 -0.1687
  343POPE   C4B 3845   0.454  12.181   5.243 -0.1643 -0.0682 -0.0955
  344POSM   NC3 3846   4.807   0.890   7.028  0.0014 -0.2213 -0.2167
  344POSM   PO4 3847   4.794   1.213   6.702 -0.0799 -0.1575 -0.1782
  344POSM   AM1 3848   4.925   1.016   6.363 -0.1240  0.1027  0.1424
  344POSM   AM2 3849   4.774   0.996   6.113 -0.1334 -0.4017  0.1660
  344POSM   T1A 3850   5.084   0.630   6.018  0.0897  0.0565 -0.0773
  344POSM   C2A 3851   5.115   0.418   5.625 -0.0420  0.1703  0.2841
  344POSM   C3A 3852   5.091   0.435   5.179  0.1424  0.6452  0.2074
  344POSM   C1B 3853   4.767   1.045   5.757 -0.0738 -0.0980  0.1908
  344POSM   D2B 3854   4.809   1.228   5.317 -0.3290 -0.0699  0.0872
  344POSM   C3B 3855   4.536   1.172   4.921  0.1368 -0.2274  0.1091
  344POSM   C4B 3856   4.160   0.977   4.729  0.4028 -0.0643 -0.1398
  345POPS   CNO 3857   7.956   0.645   6.558 -0.1433 -0.1013  0.2033
  345POPS   PO4 3858   7.861   0.905   6.160  0.0685 -0.0427 -0.0169
  345POPS   GL1 3859   7.745   0.769   5.748  0.0574 -0.3830  0.1789
  345POPS   GL2 3860   7.411   0.867   5.705 -0.1087  0.1883  0.2673
  345POPS   C1A 3861   7.901   0.913   5.213 -0.0085 -0.1467 -0.0567
  345POPS   D2A 3862   8.006   0.938   4.837  0.3422  0.0315 -0.1598
  345POPS   C3A 3863   8.426   0.936   4.713  0.3105 -0.2051  0.1381
  345POPS   C4A 3864   8.852   0.797   4.750  0.2438  0.0783 -0.0053
  345POPS   C1B 3865   7.362   0.958   5.303  0.0794 -0.0304  0.1847
  345POPS   C2B 3866   7.519   1.012   4.933 -0.0361  0.2813 -0.2729
  345POPS   C3B 3867   7.559   0.815   4.573  0.3006  0.0429  0.0544
  345POPS   C4B 3868   7.356   0.899   4.188  0.0724 -0.0839  0.1214
  346POPC   NC3 3869   3.788  15.008   6.617 -0.0156  0.1753  0.0568
  346POPC   PO4 3870   3.414  14.914   6.465 -0.0208 -0.1945 -0.1877
  346POPC   GL1 3871   3.260  14.836   6.064 -0.1627  0.0037 -0.1117
  346POPC   GL2 3872   3.489  14.911   5.822 -0.3638 -0.1822 -0.0094
  346POPC   C1A 3873   2.997  14.840   5.802  0.1720 -0.1832  0.0638
  346POPC   D2A 3874   2.896  14.624   5.382  0.0588 -0.2000  0.0195
  346POPC   C3A 3875   2.978  14.518   4.937 -0.0801  0.0943  0.2264
  346POPC   C4A 3876   3.134  14.557   4.610 -0.1459  0.2417 -0.0614
  346POPC   C1B 3877   3.387  14.812   5.351  0.0886 -0.4622  0.1896
  346POPC   C2B 3878   3.495  14.826   4.910  0.1486  0.0644 -0.2927
  346POPC   C3B 3879   3.388  14.966   4.498  0.0179 -0.3340  0.1732
  346POPC   C4B 3880   3.019  15.311   4.392 -0.1930 -0.0337  0.2511
  347CHOL   ROH 3881   5.174   1.203   5.942 -0.0796 -0.4001 -0.1369
  347CHOL    R1 3882   5.206   1.372   5.717 -0.1996 -0.2882 -0.0708
  347CHOL    R2 3883   5.445   1.394   5.580 -0.1954 -0.0190 -0.0260
  347CHOL    R3 3884   5.289   1.333   5.366 -0.1062 -0.0849 -0.0726
  347CHOL    R4 3885   5.553   1.388   5.252 -0.0866 -0.0166  0.0094
  347CHOL    R5 3886   5.365   1.479   5.192 -0.0939 -0.0783 -0.0613
  347CHOL    C1 3887   5.471   1.326   4.860  0.0606 -0.0771 -0.0137
  347CHOL    C2 3888   5.603   1.287   4.477 -0.1403 -0.3902  0.0244
  348POSM   NC3 3889  13.256   2.429   6.083 -0.2300 -0.1985  0.0778
  348POSM   PO4 3890  13.147   2.904   6.224 -0.0834  0.3147  0.1409
  348POSM   AM1 3891  13.143   3.218   5.968  0.1445  0.0151  0.0390
  348POSM   AM2 3892  13.453   3.267   5.979 -0.1886 -0.4384  0.0177
  348POSM   T1A 3893  13.167   3.547   5.637  0.0453 -0.3949 -0.0415
  348POSM   C2A 3894  13.113   3.610   5.232  0.0585 -0.1977 -0.2135
  348POSM   C3A 3895  13.082   3.778   4.825  0.2951  0.2704  0.0087
  348POSM   C1B 3896  13.568   3.261   5.577 -0.0162  0.3845 -0.0010
  348POSM   D2B 3897  13.641   3.145   5.222 -0.3993  0.0765 -0.0720
  348POSM   C3B 3898  13.903   3.169   4.923  0.0658 -0.3366 -0.3143
  348POSM   C4B 3899  13.857   3.174   4.488 -0.0662 -0.2546  0.2077
  349CHOL   ROH 3900  13.394   2.844   5.785 -0.3053  0.2233  0.1483
  349CHOL    R1 3901  13.271   2.875   5.533 -0.2073  0.1727  0.0930
  349CHOL    R2 3902  13.014   2.973   5.504 -0.1726  0.2297 -0.0308
  349CHOL    R3 3903  13.135   3.151   5.337 -0.0673  0.1447 -0.0454
  349CHOL    R4 3904  12.947   3.005   5.166 -0.0511  0.1456 -0.0633
  349CHOL    R5 3905  13.160   3.031   5.131 -0.0321  0.0746 -0.0006
  349CHOL    C1 3906  13.021   3.190   4.813  0.1186  0.0168 -0.0959
  349CHOL    C2 3907  12.817   3.233   4.513  0.2122 -0.1985  0.1053
  350POPS   CNO 3908  14.741   5.293   6.398  0.0050  0.1590  0.0149
  350POPS   PO4 3909  15.197   5.416   6.371  0.3152  0.0447  0.1437
  350POPS   GL1 3910  15.416   5.388   6.045  0.0159  0.0998  0.1568
  350POPS   GL2 3911  15.339   5.700   5.738 -0.0673  0.2027 -0.0644
  350POPS   C1A 3912  15.488   5.027   5.750  0.1729 -0.0295 -0.0153
  350POPS   D2A 3913  15.712   4.862   5.495 -0.0903 -0.2403 -0.2327
  350POPS   C3A 3914  15.677   5.075   5.055  0.0388 -0.0290  0.0495
  350POPS   C4A 3915  15.682   5.116   4.621 -0.3718  0.4132  0.1739
  350POPS   C1B 3916  15.229   5.738   5.353  0.2221  0.0212  0.0124
  350POPS   C2B 3917  15.000   5.697   4.910 -0.1648  0.2731 -0.0151
  350POPS   C3B 3918  14.949   5.550   4.579  0.0906  0.0557  0.1133
  350POPS   C4B 3919  14.948   5.668   4.185  0.0380  0.0415  0.0917
  351POPS   CNO 3920   1.273  10.228   7.062  0.0503  0.0086 -0.2046
  351POPS   PO4 3921   1.378   9.974   6.677  0.1628 -0.2220  0.1184
  351POPS   GL1 3922   1.349  10.103   6.163  0.2218  0.0101 -0.0698
  351POPS   GL2 3923   1.016  10.147   5.968 -0.3035  0.0162  0.2609
  351POPS   C1A 3924   1.538  10.091   5.726 -0.2467 -0.1319 -0.1617
  351POPS   D2A 3925   1.821  10.091   5.431 -0.0238 -0.0454 -0.0229
  351POPS   C3A 3926   1.779   9.993   5.078  0.0156 -0.1889  0.1995
  351POPS   C4A 3927   1.603   9.941   4.708 -0.3306  0.0023  0.2683
  351POPS   C1B 3928   1.097   9.802   5.621  0.0734 -0.0157 -0.1620
  351POPS   C2B 3929   1.055   9.400   5.350 -0.2586  0.1099  0.1455
  351POPS   C3B 3930   1.151   9.151   4.924  0.0029 -0.1408  0.3536
  351POPS   C4B 3931   1.319   9.070   4.587 -0.1849  0.0148  0.1588
  352POSM   NC3 3932   9.638   0.520   6.977 -0.2031 -0.2022 -0.2392
  352POSM   PO4 3933   9.419   0.616   6.619 -0.2786  0.0176  0.3116
  352POSM   AM1 3934   9.339   0.524   6.154 -0.2408  0.1250 -0.1721
  352POSM   AM2 3935   9.510   0.254   5.988  0.1004  0.2265  0.0618
  352POSM   T1A 3936   9.336   0.695   5.700 -0.2812  0.0228  0.1069
  352POSM   C2A 3937   9.501   0.870   5.279 -0.0996 -0.2688  0.2720
  352POSM   C3A 3938   9.286   0.983   4.988 -0.0119  0.0603  0.1491
  352POSM   C1B 3939   9.387   0.140   5.654  0.2658  0.0027  0.3458
  352POSM   D2B 3940   9.495   0.094   5.268  0.2056  0.1845  0.1464
  352POSM   C3B 3941   9.509  -0.010   4.790  0.1222 -0.0677 -0.1771
  352POSM   C4B 3942   9.547  -0.197   4.454 -0.1128  0.0901  0.0464
  353POPC   NC3 3943  16.168   6.712   6.209 -0.0005 -0.0814 -0.0549
  353POPC   PO4 3944  16.078   7.151   6.240 -0.0061 -0.0714  0.1425
  353POPC   GL1 3945  15.991   7.069   5.781  0.0295  0.1340  0.1463
  353POPC   GL2 3946  16.009   7.338   5.557  0.3490  0.0088  0.2156
  353POPC   C1A 3947  16.323   6.774   5.536 -0.2181  0.0243 -0.1982
  353POPC   D2A 3948  16.317   6.811   4.995 -0.0988  0.1154 -0.0133
  353POPC   C3A 3949  16.410   6.670   4.583 -0.0884 -0.0702  0.0224
  353POPC   C4A 3950  16.488   6.825   4.185  0.1857 -0.0171  0.0196
  353POPC   C1B 3951  16.021   7.196   5.074  0.2028  0.1240 -0.0202
  353POPC   C2B 3952  16.148   7.212   4.676  0.0135 -0.0551  0.1005
  353POPC   C3B 3953  16.387   7.288   4.319 -0.0685 -0.1893  0.1620
  353POPC   C4B 3954  16.487   7.523   4.017 -0.1504 -0.2082 -0.1177
  354POPS   CNO 3955   3.619  15.353   6.270 -0.1635 -0.2866  0.0101
  354POPS   PO4 3956   4.098  15.479   6.235 -0.0866 -0.0822  0.4033
  354POPS   GL1 3957   4.240  15.542   5.777 -0.1997  0.0594 -0.0767
  354POPS   GL2 3958   4.215  15.862   5.698  0.1907  0.0013  0.2350
  354POPS   C1A 3959   4.245  15.271   5.378 -0.1436  0.1809 -0.2244
  354POPS   D2A 3960   4.581  15.344   5.145  0.0416  0.1522  0.3309
  354POPS   C3A 3961   4.448  15.293   4.775 -0.2192 -0.1115 -0.0444
  354POPS   C4A 3962   4.298  15.225   4.335  0.1514  0.1995  0.0645
  354POPS   C1B 3963   4.281  15.752   5.337 -0.0681 -0.1620 -0.0510
  354POPS   C2B 3964   4.339  15.935   4.914 -0.0530  0.0287 -0.1320
  354POPS   C3B 3965   4.328  15.948   4.474 -0.2925  0.1357  0.1340
  354POPS   C4B 3966   4.320  15.813   4.086 -0.3587 -0.0958 -0.1505
  355POPE   NH3 3967   1.253   5.671   6.188  0.0294  0.1410  0.0276
  355POPE   PO4 3968   1.527   5.324   6.307  0.2036 -0.1117  0.0753
  355POPE   GL1 3969   1.751   5.551   5.978 -0.2204  0.0813  0.0701
  355POPE   GL2 3970   1.657   5.798   5.930 -0.0498  0.0990  0.1047
  355POPE   C1A 3971   1.709   5.393   5.569 -0.0520  0.1818  0.0477
  355POPE   D2A 3972   1.596   5.023   5.314 -0.0317 -0.2566  0.1205
  355POPE   C3A 3973   1.547   5.135   4.930  0.2906 -0.0672 -0.0722
  355POPE   C4A 3974   1.642   5.327   4.584  0.2539  0.1355 -0.3061
  355POPE   C1B 3975   1.415   5.858   5.527  0.1174 -0.0665 -0.2258
  355POPE   C2B 3976   1.399   5.752   5.164  0.0737  0.1849 -0.1241
  355POPE   C3B 3977   1.349   5.840   4.687  0.0360  0.3456 -0.1691
  355POPE   C4B 3978   1.544   5.711   4.272  0.1773  0.1143  0.1708
  356CHOL   ROH 3979   0.106   8.538   5.851 -0.1450  0.0893 -0.0076
  356CHOL    R1 3980   0.065   8.697   5.621 -0.1029  0.0221 -0.0614
  356CHOL    R2 3981   0.262   8.739   5.432 -0.0939 -0.0970 -0.0758
  356CHOL    R3 3982   0.072   8.647   5.260 -0.1197 -0.1012 -0.0457
  356CHOL    R4 3983   0.286   8.749   5.087 -0.0088 -0.3713 -0.0809
  356CHOL    R5 3984   0.075   8.804   5.079  0.0249 -0.2353 -0.1656
  356CHOL    C1 3985   0.122   8.669   4.726  0.0164 -0.5351 -0.0555
  356CHOL    C2 3986   0.145   8.891   4.420  0.1807  0.0466 -0.3258
  357POPS   CNO 3987   3.232  14.002   6.773 -0.0703  0.2444  0.2012
  357POPS   PO4 3988   3.616  14.026   6.632  0.0692  0.1263 -0.1186
  357POPS   GL1 3989   3.495  14.074   6.224  0.0567 -0.1224  0.2050
  357POPS   GL2 3990   3.237  14.293   6.061  0.0140 -0.2039 -0.0051
  357POPS   C1A 3991   3.667  14.102   5.786 -0.2642  0.1696  0.0351
  357POPS   D2A 3992   3.883  14.101   5.391  0.0762 -0.0113 -0.1563
  357POPS   C3A 3993   3.815  14.535   5.238  0.0644 -0.1362  0.1072
  357POPS   C4A 3994   3.964  14.867   5.168 -0.1000 -0.1533 -0.1093
  357POPS   C1B 3995   3.272  14.460   5.644  0.1338  0.4056  0.0683
  357POPS   C2B 3996   3.364  14.189   5.285  0.0685 -0.1088 -0.0074
  357POPS   C3B 3997   3.409  14.220   4.867  0.3427  0.2588  0.1645
  357POPS   C4B 3998   3.686  14.203   4.526  0.2013  0.0779  0.2209
  358CHOL   ROH 3999   6.145   0.582   5.692  0.2619 -0.0500 -0.0150
  358CHOL    R1 4000   6.020   0.618   5.441  0.0533 -0.1887  0.0692
  358CHOL    R2 4001   6.141   0.751   5.231 -0.2344 -0.0552 -0.0084
  358CHOL    R3 4002   6.086   0.521   5.096 -0.0727 -0.1159  0.0215
  358CHOL    R4 4003   6.196   0.702   4.893 -0.0344 -0.1155  0.0295
  358CHOL    R5 4004   6.006   0.595   4.883  0.0069 -0.1969 -0.0427
  358CHOL    C1 4005   6.175   0.458   4.570  0.2337 -0.2076  0.0796
  358CHOL    C2 4006   6.368   0.399   4.222  0.1178  0.3431  0.2388
  359POPC   NC3 4007   3.716   1.253   6.273 -0.1762  0.0284 -0.1296
  359POPC   PO4 4008   3.355   1.084   6.176  0.0816  0.1025 -0.1301
  359POPC   GL1 4009   3.390   1.316   5.866  0.0386 -0.0761 -0.0257
  359POPC   GL2 4010   3.220   1.603   5.851 -0.2526  0.1592  0.1721
  359POPC   C1A 4011   3.580   1.385   5.474 -0.0261  0.1729  0.0839
  359POPC   D2A 4012   3.530   1.490   5.017  0.4774 -0.0378  0.0935
  359POPC   C3A 4013   3.797   1.340   4.730 -0.1416  0.2072  0.1990
  359POPC   C4A 4014   3.921   1.163   4.333 -0.0587 -0.2835  0.0812
  359POPC   C1B 4015   3.233   1.716   5.445 -0.2294 -0.0235 -0.0581
  359POPC   C2B 4016   3.248   2.041   5.121 -0.1027 -0.1567 -0.3012
  359POPC   C3B 4017   3.108   2.129   4.652 -0.1611  0.3758 -0.2051
  359POPC   C4B 4018   3.031   1.968   4.227  0.2177  0.4085  0.1319
  360POPE   NH3 4019  13.857   4.880   6.390  0.1845 -0.3379  0.1149
  360POPE   PO4 4020  13.955   4.465   6.363  0.0581  0.2566  0.0153
  360POPE   GL1 4021  14.214   4.391   6.166  0.4764  0.3814  0.3541
  360POPE   GL2 4022  14.297   4.014   6.295 -0.1341  0.1907  0.0518
  360POPE   C1A 4023  14.261   4.325   5.768  0.0436 -0.0247 -0.0417
  360POPE   D2A 4024  14.060   4.111   5.420  0.0976 -0.2252 -0.2583
  360POPE   C3A 4025  14.349   3.822   5.156 -0.1456 -0.1011 -0.0831
  360POPE   C4A 4026  14.736   3.558   4.977  0.0715 -0.0802 -0.3197
  360POPE   C1B 4027  14.481   3.890   5.914  0.2674  0.1281  0.0252
  360POPE   C2B 4028  14.601   4.080   5.517 -0.1940  0.2308  0.2353
  360POPE   C3B 4029  14.425   4.440   5.234  0.2009  0.0546 -0.1660
  360POPE   C4B 4030  14.510   4.587   4.830  0.0739  0.1577  0.1405
  361POPC   NC3 4031  15.646  11.590   6.332  0.0336  0.0972 -0.2049
  361POPC   PO4 4032  15.982  11.904   6.421 -0.1057  0.3494 -0.1422
  361POPC   GL1 4033  15.986  11.847   5.968 -0.1420  0.0702  0.0316
  361POPC   GL2 4034  15.823  11.681   5.809 -0.3274 -0.1252 -0.3879
  361POPC   C1A 4035  16.260  12.077   5.570  0.2918  0.1458 -0.1720
  361POPC   D2A 4036  16.330  12.192   5.205 -0.1976  0.5335  0.0213
  361POPC   C3A 4037  16.176  12.494   4.893 -0.0767  0.2653  0.2009
  361POPC   C4A 4038  16.068  12.322   4.512 -0.5135  0.2100 -0.2232
  361POPC   C1B 4039  15.818  11.405   5.490  0.0344  0.2291 -0.0265
  361POPC   C2B 4040  15.704  11.100   5.246  0.0965  0.2238  0.1576
  361POPC   C3B 4041  15.339  10.867   5.166 -0.3041 -0.1440 -0.2007
  361POPC   C4B 4042  15.316  10.563   4.850  0.1237  0.2992  0.0091
  362POSM   NC3 4043  11.996   2.983   6.056  0.1549  0.2189  0.1511
  362POSM   PO4 4044  11.954   2.576   6.302 -0.0982  0.2740 -0.0046
  362POSM   AM1 4045  12.204   2.387   5.904  0.2242 -0.0229  0.3110
  362POSM   AM2 4046  12.385   2.082   6.045  0.2313  0.4362  0.0908
  362POSM   T1A 4047  12.037   2.349   5.443 -0.0484  0.1493 -0.0726
  362POSM   C2A 4048  12.074   2.509   4.976 -0.3112 -0.2516 -0.1045
  362POSM   C3A 4049  12.213   2.448   4.495 -0.0399  0.2000 -0.1492
  362POSM   C1B 4050  12.276   1.972   5.665  0.1250  0.2905  0.2914
  362POSM   D2B 4051  11.976   1.871   5.362 -0.4499  0.2135 -0.0898
  362POSM   C3B 4052  11.964   1.993   4.990  0.1081  0.0238  0.3551
  362POSM   C4B 4053  11.908   2.019   4.521  0.1217  0.2664  0.1173
  363POPE   NH3 4054  13.590  13.182   6.793  0.0323  0.0422 -0.1995
  363POPE   PO4 4055  13.817  13.501   6.498  0.2209  0.0202 -0.1565
  363POPE   GL1 4056  13.896  13.310   6.087 -0.0237 -0.1694  0.0723
  363POPE   GL2 4057  14.209  13.414   5.909 -0.1219  0.0444  0.1606
  363POPE   C1A 4058  13.801  13.168   5.637 -0.1588 -0.3213 -0.0820
  363POPE   D2A 4059  13.838  13.104   5.220  0.2563 -0.1665 -0.2260
  363POPE   C3A 4060  14.242  12.937   5.087 -0.5062  0.2915 -0.1920
  363POPE   C4A 4061  14.369  13.031   4.629 -0.0454  0.1647 -0.1347
  363POPE   C1B 4062  14.269  13.354   5.441  0.0620 -0.1877 -0.2426
  363POPE   C2B 4063  14.231  13.447   5.074 -0.1503  0.1096  0.4336
  363POPE   C3B 4064  14.576  13.472   4.759  0.2695 -0.2564 -0.1113
  363POPE   C4B 4065  14.945  13.645   4.505  0.2540 -0.1118  0.1705
  364POSM   NC3 4066   5.342  13.890   6.618 -0.0974  0.2259  0.0833
  364POSM   PO4 4067   5.121  13.599   6.432 -0.0191  0.1398 -0.1167
  364POSM   AM1 4068   4.837  13.886   6.221  0.1886  0.3513 -0.2188
  364POSM   AM2 4069   4.611  13.707   6.113  0.1280  0.2223 -0.0447
  364POSM   T1A 4070   4.785  14.140   5.902 -0.1161  0.1647 -0.0135
  364POSM   C2A 4071   4.764  14.592   5.796 -0.1220  0.1506 -0.3724
  364POSM   C3A 4072   4.843  15.002   5.664  0.0668  0.3233 -0.0144
  364POSM   C1B 4073   4.598  13.631   5.676 -0.2717 -0.0546 -0.1979
  364POSM   D2B 4074   4.412  13.993   5.572  0.0672  0.1114  0.0978
  364POSM   C3B 4075   4.322  14.366   5.803  0.1475 -0.0867  0.1966
  364POSM   C4B 4076   3.889  14.549   5.710 -0.2542  0.1598 -0.1574
  365POPE   NH3 4077   2.814  13.468   6.609  0.0541 -0.2071  0.0294
  365POPE   PO4 4078   3.072  13.188   6.529  0.1182  0.0132  0.3600
  365POPE   GL1 4079   3.154  13.382   6.204  0.1041  0.0413 -0.2701
  365POPE   GL2 4080   3.309  13.178   5.967  0.0778 -0.1404 -0.1080
  365POPE   C1A 4081   3.031  13.571   5.866 -0.1474 -0.1126  0.1789
  365POPE   D2A 4082   3.179  13.917   5.632 -0.1243  0.2914 -0.2320
  365POPE   C3A 4083   3.561  13.759   5.342  0.0772 -0.0942  0.0613
  365POPE   C4A 4084   3.708  13.832   4.930 -0.0668 -0.0817  0.2259
  365POPE   C1B 4085   3.251  13.202   5.594 -0.1363 -0.0201  0.1267
  365POPE   C2B 4086   3.222  13.130   5.162  0.3629 -0.3414 -0.1661
  365POPE   C3B 4087   3.117  12.944   4.749  0.0345 -0.1424 -0.2240
  365POPE   C4B 4088   3.052  12.674   4.433  0.0080  0.1738  0.0697
  366POPE   NH3 4089  12.473  13.683   6.257  0.1491 -0.2878  0.2451
  366POPE   PO4 4090  12.792  13.386   6.239 -0.5208 -0.0025 -0.2921
  366POPE   GL1 4091  12.930  13.784   6.098  0.1297 -0.2448  0.1555
  366POPE   GL2 4092  13.070  14.024   6.262  0.2222 -0.1175 -0.1899
  366POPE   C1A 4093  12.884  13.869   5.651  0.4890 -0.1418  0.0035
  366POPE   D2A 4094  12.661  13.950   5.313  0.1080  0.0355 -0.3110
  366POPE   C3A 4095  12.782  13.777   4.846  0.1771  0.1183 -0.0135
  366POPE   C4A 4096  12.822  13.363   4.610 -0.0889  0.1887 -0.2786
  366POPE   C1B 4097  13.044  14.338   5.853 -0.0425  0.0776  0.4141
  366POPE   C2B 4098  12.960  14.411   5.399  0.0712 -0.3107 -0.1868
  366POPE   C3B 4099  13.187  14.527   5.060 -0.2755  0.4451 -0.2195
  366POPE   C4B 4100  13.075  14.650   4.665  0.1420  0.4598  0.1855
  367CHOL   ROH 4101   7.529   0.306   5.743 -0.3091  0.0647 -0.0234
  367CHOL    R1 4102   7.529   0.421   5.484 -0.2082 -0.0402 -0.0704
  367CHOL    R2 4103   7.756   0.440   5.330 -0.1230  0.0239  0.0722
  367CHOL    R3 4104   7.604   0.310   5.146  0.0703 -0.1334  0.0171
  367CHOL    R4 4105   7.797   0.463   4.987 -0.2573  0.3880  0.0762
  367CHOL    R5 4106   7.580   0.468   4.967 -0.2880 -0.0195  0.1469
  367CHOL    C1 4107   7.677   0.355   4.615 -0.1541  0.4523  0.0268
  367CHOL    C2 4108   7.764   0.293   4.194  0.0669 -0.1032  0.3151
  368POPS   CNO 4109   8.430   0.545   6.602  0.0218  0.0460 -0.0095
  368POPS   PO4 4110   8.545   0.290   6.316 -0.0966 -0.0765  0.0543
  368POPS   GL1 4111   8.291   0.288   5.945 -0.1132 -0.1515 -0.2287
  368POPS   GL2 4112   8.116   0.459   6.009  0.0220  0.3102  0.0244
  368POPS   C1A 4113   8.213   0.113   5.553  0.2841  0.0744  0.0269
  368POPS   D2A 4114   8.118   0.186   5.227  0.0280 -0.1030  0.2471
  368POPS   C3A 4115   8.092   0.092   4.750  0.0919 -0.1164  0.2183
  368POPS   C4A 4116   8.171   0.068   4.321 -0.0063  0.0259  0.1186
  368POPS   C1B 4117   8.181   0.620   5.623  0.1505  0.1110  0.2468
  368POPS   C2B 4118   8.314   0.702   5.177 -0.0715 -0.3491 -0.1007
  368POPS   C3B 4119   8.451   0.450   4.846 -0.1140 -0.1380  0.3392
  368POPS   C4B 4120   8.640   0.349   4.642 -0.0458 -0.1164 -0.1326
  369POPC   NC3 4121   1.985   3.032   6.591  0.2278  0.0479  0.0539
  369POPC   PO4 4122   1.628   3.021   6.303  0.1465 -0.2726 -0.0846
  369POPC   GL1 4123   1.840   3.015   5.941  0.0976  0.0458  0.0464
  369POPC   GL2 4124   1.670   2.796   5.824  0.2290  0.1383  0.1066
  369POPC   C1A 4125   1.846   3.259   5.664  0.1087 -0.4339  0.0986
  369POPC   D2A 4126   1.821   3.348   5.245  0.1518 -0.0098  0.1573
  369POPC   C3A 4127   1.431   3.170   4.966 -0.2009 -0.1751 -0.1367
  369POPC   C4A 4128   1.245   2.835   4.733 -0.1405  0.2487  0.0539
  369POPC   C1B 4129   1.669   2.806   5.372  0.0251 -0.0733  0.1337
  369POPC   C2B 4130   1.728   2.692   4.969 -0.0851  0.0237 -0.1270
  369POPC   C3B 4131   1.817   2.993   4.620  0.1869  0.3586  0.2666
  369POPC   C4B 4132   2.068   3.201   4.291 -0.3039 -0.0356 -0.1383
  370CHOL   ROH 4133  11.590   0.739   5.973  0.2225  0.1867 -0.0259
  370CHOL    R1 4134  11.558   0.551   5.764  0.1522  0.1562  0.0110
  370CHOL    R2 4135  11.372   0.582   5.562  0.0474  0.1024  0.0954
  370CHOL    R3 4136  11.589   0.551   5.401 -0.0229  0.1208 -0.0038
  370CHOL    R4 4137  11.360   0.546   5.218 -0.1055 -0.0000  0.1105
  370CHOL    R5 4138  11.517   0.396   5.233 -0.0555  0.0524  0.0755
  370CHOL    C1 4139  11.556   0.496   4.867 -0.2604 -0.0424  0.0262
  370CHOL    C2 4140  11.301   0.384   4.589 -0.0595  0.0860  0.1292
  371POPE   NH3 4141   1.776  12.331   6.601 -0.0250 -0.2643  0.2288
  371POPE   PO4 4142   1.349  12.468   6.732  0.0358  0.0958  0.1859
  371POPE   GL1 4143   1.285  12.359   6.257  0.3992  0.0601  0.1486
  371POPE   GL2 4144   1.221  12.614   6.047  0.1084  0.3859  0.0686
  371POPE   C1A 4145   1.372  12.138   5.822  0.5057  0.1177 -0.1409
  371POPE   D2A 4146   1.486  12.032   5.446 -0.0760  0.0264  0.1202
  371POPE   C3A 4147   1.192  12.001   5.094  0.2244  0.3209  0.2455
  371POPE   C4A 4148   1.107  11.663   4.849 -0.1654  0.0149 -0.1818
  371POPE   C1B 4149   0.840  12.568   5.796 -0.1800 -0.3139 -0.1240
  371POPE   C2B 4150   0.486  12.308   5.775 -0.2967  0.2441 -0.2405
  371POPE   C3B 4151   0.260  12.009   5.675 -0.2189 -0.2400 -0.2847
  371POPE   C4B 4152   0.066  11.796   5.413 -0.2229  0.0870 -0.1450
  372CHOL   ROH 4153  11.474   1.218   5.755 -0.2082  0.1106 -0.2584
  372CHOL    R1 4154  11.615   1.046   5.580 -0.1709  0.0787 -0.1982
  372CHOL    R2 4155  11.533   0.998   5.321 -0.0071  0.1888 -0.2684
  372CHOL    R3 4156  11.786   1.076   5.260  0.0817  0.0670 -0.0673
  372CHOL    R4 4157  11.728   0.860   5.071  0.0472  0.2170 -0.2419
  372CHOL    R5 4158  11.900   0.873   5.205 -0.0184  0.0223 -0.1276
  372CHOL    C1 4159  12.080   0.854   4.870  0.1621  0.1192 -0.0377
  372CHOL    C2 4160  12.370   1.109   4.767 -0.2048 -0.0348  0.0212
  373POSM   NC3 4161   0.167   8.635   6.444 -0.5047  0.0089 -0.3351
  373POSM   PO4 4162   0.186   8.298   6.361  0.1669 -0.1026  0.0020
  373POSM   AM1 4163   0.557   8.284   5.962 -0.0426  0.1771  0.0503
  373POSM   AM2 4164   0.878   8.396   6.007  0.1472  0.0380  0.2435
  373POSM   T1A 4165   0.390   8.270   5.527  0.0276 -0.1664  0.0375
  373POSM   C2A 4166   0.386   8.279   5.089  0.2291  0.0250 -0.1646
  373POSM   C3A 4167   0.652   8.470   4.725 -0.0189  0.1661  0.1798
  373POSM   C1B 4168   0.851   8.133   5.618  0.0446  0.2023 -0.0412
  373POSM   D2B 4169   0.766   7.900   5.214 -0.0219 -0.2602  0.0708
  373POSM   C3B 4170   0.976   8.075   4.932 -0.1108 -0.1489  0.1138
  373POSM   C4B 4171   1.072   8.190   4.575  0.3964  0.1591  0.0010
  374POPE   NH3 4172  13.556   4.131   6.507  0.1162  0.0010  0.2709
  374POPE   PO4 4173  13.492   4.547   6.440 -0.0021  0.4485 -0.0545
  374POPE   GL1 4174  13.723   4.537   5.954 -0.1706  0.2482 -0.0946
  374POPE   GL2 4175  14.022   4.747   5.865  0.0347  0.0310 -0.1132
  374POPE   C1A 4176  13.642   4.400   5.568  0.2260  0.1620 -0.0825
  374POPE   D2A 4177  13.605   4.183   5.149  0.0056 -0.4406  0.0955
  374POPE   C3A 4178  13.919   4.192   4.920 -0.1697  0.0546  0.3114
  374POPE   C4A 4179  14.291   4.154   4.765 -0.0015  0.0404  0.1361
  374POPE   C1B 4180  14.053   4.744   5.474 -0.1843  0.1955 -0.0558
  374POPE   C2B 4181  13.940   4.600   5.250 -0.0930 -0.1240  0.1304
  374POPE   C3B 4182  13.832   4.688   4.790 -0.1023  0.2095 -0.0535
  374POPE   C4B 4183  14.229   4.875   4.500  0.1347  0.2492  0.1115
  375POSM   NC3 4184   5.891   0.051   6.196 -0.0639  0.1464 -0.0684
  375POSM   PO4 4185   6.238   0.484   6.246  0.1805  0.1115 -0.1414
  375POSM   AM1 4186   6.309   0.166   5.906 -0.0872  0.2025 -0.2913
  375POSM   AM2 4187   6.317  -0.126   6.031 -0.1529  0.0136  0.1863
  375POSM   T1A 4188   6.272   0.070   5.373  0.1222 -0.0501  0.0375
  375POSM   C2A 4189   6.116   0.074   4.920  0.1344 -0.0853  0.0974
  375POSM   C3A 4190   5.936  -0.056   4.526 -0.0765  0.0362 -0.0271
  375POSM   C1B 4191   6.572  -0.175   5.603 -0.1319  0.0326  0.0952
  375POSM   D2B 4192   6.776   0.074   5.386 -0.0693  0.1862  0.0393
  375POSM   C3B 4193   6.624  -0.032   5.000  0.3105 -0.2691  0.3469
  375POSM   C4B 4194   6.436  -0.003   4.549 -0.0215 -0.0872  0.0213
  376CHOL   ROH 4195  10.729   1.409   5.674 -0.0596 -0.0489 -0.2224
  376CHOL    R1 4196  10.681   1.403   5.395 -0.1692  0.1803 -0.2112
  376CHOL    R2 4197  10.646   1.632   5.245  0.0942  0.3238 -0.0648
  376CHOL    R3 4198  10.848   1.526   5.096 -0.1006  0.1285 -0.1951
  376CHOL    R4 4199  10.806   1.794   4.985  0.0961  0.1726 -0.1589
  376CHOL    R5 4200  10.806   1.606   4.874 -0.1582  0.1760 -0.1674
  376CHOL    C1 4201  11.088   1.789   4.693 -0.0856 -0.0988 -0.3361
  376CHOL    C2 4202  11.133   1.673   4.298 -0.0061  0.3951 -0.3110
  377POSM   NC3 4203   1.621  10.728   7.076  0.0603 -0.2654  0.1432
  377POSM   PO4 4204   1.417  11.014   6.646  0.1754  0.0265 -0.2436
  377POSM   AM1 4205   1.406  10.991   6.253 -0.0624 -0.1136  0.3601
  377POSM   AM2 4206   1.352  10.738   6.211  0.2860 -0.1682  0.0589
  377POSM   T1A 4207   1.362  11.196   5.832  0.2542 -0.1037 -0.0366
  377POSM   C2A 4208   1.452  11.369   5.514 -0.2260 -0.0030 -0.0520
  377POSM   C3A 4209   1.325  11.580   5.292 -0.2726 -0.1607 -0.0555
  377POSM   C1B 4210   1.243  10.519   5.869 -0.0787  0.0027 -0.0592
  377POSM   D2B 4211   1.103  10.290   5.529 -0.0139  0.3450  0.2644
  377POSM   C3B 4212   1.351  10.231   5.143  0.0575 -0.1459  0.0258
  377POSM   C4B 4213   1.683  10.480   4.837 -0.2372 -0.0806 -0.0674
  378POPC   NC3 4214   2.296   3.869   6.282 -0.0264  0.0009  0.0449
  378POPC   PO4 4215   1.868   4.007   6.290  0.1155  0.0897 -0.0021
  378POPC   GL1 4216   1.625   3.900   5.909 -0.0783 -0.3249 -0.0507
  378POPC   GL2 4217   1.474   3.675   5.702  0.2368  0.0129  0.4048
  378POPC   C1A 4218   1.466   4.111   5.448  0.2186  0.0352  0.0943
  378POPC   D2A 4219   1.381   4.216   5.088  0.1927 -0.0531 -0.0914
  378POPC   C3A 4220   1.343   4.385   4.675  0.0124 -0.1040  0.2745
  378POPC   C4A 4221   1.570   4.475   4.245  0.4362  0.1340 -0.0169
  378POPC   C1B 4222   1.365   3.637   5.282  0.0944  0.0703  0.0467
  378POPC   C2B 4223   1.304   3.749   4.945  0.2140  0.1594  0.0798
  378POPC   C3B 4224   1.319   3.697   4.449 -0.2273  0.1334 -0.2342
  378POPC   C4B 4225   1.138   4.128   4.289  0.2595 -0.0653 -0.0699
  379POPS   CNO 4226  12.749   0.008   6.584  0.1189 -0.0687  0.2137
  379POPS   PO4 4227  12.601   0.365   6.268 -0.2394 -0.0161 -0.0819
  379POPS   GL1 4228  12.376   0.209   5.905  0.0763 -0.1822 -0.0264
  379POPS   GL2 4229  12.102   0.217   5.908 -0.0170  0.2818  0.1283
  379POPS   C1A 4230  12.269   0.073   5.447  0.3370  0.3750  0.1200
  379POPS   D2A 4231  12.224  -0.136   5.010  0.0650 -0.1692 -0.2269
  379POPS   C3A 4232  12.636  -0.363   4.835 -0.0291 -0.3523  0.0512
  379POPS   C4A 4233  12.996  -0.266   4.627  0.2471  0.1118  0.0817
  379POPS   C1B 4234  11.830   0.114   5.587 -0.2363  0.1508 -0.2559
  379POPS   C2B 4235  11.730  -0.041   5.210 -0.1970  0.0638  0.0446
  379POPS   C3B 4236  11.436  -0.005   4.931 -0.3586 -0.1669 -0.1094
  379POPS   C4B 4237  11.142  -0.067   4.565 -0.1042 -0.0699 -0.2653
  380CHOL   ROH 4238  14.830  12.139   5.571  0.0292  0.1721 -0.0483
  380CHOL    R1 4239  15.080  12.201   5.454  0.0499  0.0500 -0.0721
  380CHOL    R2 4240  15.236  12.012   5.327 -0.0297 -0.0382 -0.0448
  380CHOL    R3 4241  15.227  12.190   5.121  0.0291 -0.0732 -0.0771
  380CHOL    R4 4242  15.446  12.008   5.052  0.0322 -0.0981  0.0037
  380CHOL    R5 4243  15.456  12.225   5.063  0.0438 -0.0981 -0.0313
  380CHOL    C1 4244  15.559  12.172   4.699  0.1234 -0.1659  0.0016
  380CHOL    C2 4245  15.627  12.451   4.332 -0.1494 -0.0588 -0.1929
  381POPC   NC3 4246  10.533   0.925   5.910 -0.1408 -0.0739  0.3121
  381POPC   PO4 4247  10.462   0.427   5.970 -0.0157 -0.1861 -0.1104
  381POPC   GL1 4248  10.308   0.605   5.617 -0.0621 -0.0895  0.1280
  381POPC   GL2 4249  10.514   0.913   5.383  0.4509 -0.2442 -0.3610
  381POPC   C1A 4250  10.363   0.510   5.152 -0.0949 -0.0535  0.0435
  381POPC   D2A 4251  10.260   0.272   4.813 -0.1414 -0.0114 -0.1632
  381POPC   C3A 4252   9.917   0.389   4.636 -0.1096 -0.1632  0.2411
  381POPC   C4A 4253   9.644   0.267   4.344 -0.1572  0.1722 -0.2205
  381POPC   C1B 4254  10.590   1.044   4.962 -0.2636  0.0297 -0.0950
  381POPC   C2B 4255  10.714   1.240   4.531 -0.0843 -0.0324  0.0346
  381POPC   C3B 4256  10.849   1.013   4.166 -0.1014  0.1660  0.1132
  381POPC   C4B 4257  10.685   1.017   3.788 -0.0391  0.0750 -0.1556
  382POPS   CNO 4258   0.675   8.487   6.444  0.0141  0.0140  0.0997
  382POPS   PO4 4259   0.590   8.908   6.555  0.0730  0.1682 -0.0782
  382POPS   GL1 4260   0.662   8.919   6.126 -0.4276 -0.2377  0.3129
  382POPS   GL2 4261   0.394   8.988   6.111  0.1613 -0.2007 -0.2350
  382POPS   C1A 4262   0.675   8.652   5.680 -0.0219 -0.0688  0.3104
  382POPS   D2A 4263   0.802   8.514   5.232  0.2108 -0.0145  0.0210
  382POPS   C3A 4264   1.127   8.634   4.884 -0.2651  0.1365 -0.1185
  382POPS   C4A 4265   1.473   8.529   4.658 -0.0388  0.2086  0.1708
  382POPS   C1B 4266   0.281   9.183   5.747  0.1984 -0.2067 -0.2166
  382POPS   C2B 4267   0.177   9.231   5.353  0.0659 -0.1992  0.3073
  382POPS   C3B 4268   0.288   9.237   4.890 -0.0573  0.1237 -0.1291
  382POPS   C4B 4269   0.384   9.506   4.494 -0.4813  0.0021 -0.2026
  383POPC   NC3 4270   2.432   4.751   6.673  0.0449 -0.2307 -0.1853
  383POPC   PO4 4271   2.376   4.776   6.316  0.1110  0.0404  0.0672
  383POPC   GL1 4272   2.349   4.854   5.836 -0.1237  0.0623 -0.0739
  383POPC   GL2 4273   2.079   4.781   5.727 -0.1276 -0.0237 -0.0361
  383POPC   C1A 4274   2.538   5.126   5.472 -0.0676 -0.0951 -0.1229
  383POPC   D2A 4275   2.767   5.439   5.265 -0.0813  0.1092  0.0861
  383POPC   C3A 4276   2.608   5.585   4.882  0.2831 -0.0183  0.1765
  383POPC   C4A 4277   2.494   5.602   4.493  0.4939  0.2240  0.4662
  383POPC   C1B 4278   2.080   5.040   5.440 -0.1386  0.1107 -0.0946
  383POPC   C2B 4279   2.039   5.058   5.018 -0.0531 -0.0010 -0.0873
  383POPC   C3B 4280   2.056   5.114   4.543  0.1574  0.1239 -0.3305
  383POPC   C4B 4281   2.239   5.282   4.127 -0.2765  0.0212  0.1584
  384CHOL   ROH 4282   1.400   8.465   6.043 -0.0509  0.1347 -0.0689
  384CHOL    R1 4283   1.301   8.314   5.825 -0.0746  0.1493 -0.0699
  384CHOL    R2 4284   1.225   8.431   5.585  0.1144  0.1427 -0.1378
  384CHOL    R3 4285   1.400   8.251   5.481  0.0247 -0.0198 -0.0101
  384CHOL    R4 4286   1.253   8.354   5.250  0.2802  0.1061 -0.1156
  384CHOL    R5 4287   1.278   8.145   5.305  0.0520  0.0849 -0.0918
  384CHOL    C1 4288   1.433   8.139   4.956  0.2924 -0.0677  0.0173
  384CHOL    C2 4289   1.432   7.912   4.659  0.2894  0.0472  0.0496
  385POPE   NH3 4290   5.045  16.176   6.081  0.1631 -0.0859 -0.0007
  385POPE   PO4 4291   4.606  16.361   6.086 -0.3380  0.2632 -0.2523
  385POPE   GL1 4292   5.013  16.553   5.766 -0.2005 -0.2430 -0.0358
  385POPE   GL2 4293   5.223  16.350   5.617  0.0814  0.2547 -0.1547
  385POPE   C1A 4294   4.845  16.612   5.343  0.1991 -0.2588  0.1989
  385POPE   D2A 4295   4.731  16.808   4.883  0.3138  0.1545 -0.0055
  385POPE   C3A 4296   5.093  16.971   4.686  0.1216 -0.2257 -0.3551
  385POPE   C4A 4297   5.173  17.193   4.404  0.1817 -0.2231 -0.2307
  385POPE   C1B 4298   5.166  15.972   5.411  0.0558 -0.0588 -0.0941
  385POPE   C2B 4299   5.343  15.955   5.004  0.0352 -0.0821 -0.1836
  385POPE   C3B 4300   5.200  16.000   4.502 -0.2706  0.4269 -0.0620
  385POPE   C4B 4301   5.307  16.062   4.161 -0.0737  0.0102  0.0930
  386POSM   NC3 4302   3.221  12.768   6.779 -0.2920 -0.2717  0.1206
  386POSM   PO4 4303   3.012  12.643   6.384  0.0330 -0.0960 -0.0266
  386POSM   AM1 4304   2.943  12.866   5.975 -0.3776 -0.0111 -0.2090
  386POSM   AM2 4305   2.696  13.120   5.988 -0.1421 -0.1910 -0.0994
  386POSM   T1A 4306   2.934  12.874   5.584  0.1122  0.0630 -0.0784
  386POSM   C2A 4307   2.823  12.836   5.173  0.0126  0.0616 -0.0520
  386POSM   C3A 4308   2.688  13.240   4.953  0.2323  0.3332  0.1285
  386POSM   C1B 4309   2.708  13.330   5.532 -0.0092  0.2154 -0.1050
  386POSM   D2B 4310   2.794  13.629   5.283 -0.0738 -0.5153 -0.1684
  386POSM   C3B 4311   3.177  13.739   5.076 -0.2039  0.0410  0.0487
  386POSM   C4B 4312   3.331  13.367   4.773 -0.0123 -0.0911 -0.1111
  387POPE   NH3 4313   0.292   4.472   6.157 -0.1575  0.0611 -0.5046
  387POPE   PO4 4314   0.096   4.988   6.275 -0.1749  0.1204  0.1081
  387POPE   GL1 4315   0.034   4.742   5.879 -0.3651 -0.0545  0.0013
  387POPE   GL2 4316   0.081   4.969   5.725 -0.3506  0.1250 -0.0822
  387POPE   C1A 4317  -0.009   4.420   5.639  0.2179 -0.2143  0.0448
  387POPE   D2A 4318  -0.367   4.297   5.418 -0.1291  0.1589 -0.0277
  387POPE   C3A 4319  -0.775   4.431   5.208 -0.1193 -0.0611 -0.1530
  387POPE   C4A 4320  -1.082   4.650   4.903 -0.5180 -0.1691  0.2444
  387POPE   C1B 4321  -0.040   5.237   5.407 -0.2094 -0.0899  0.0754
  387POPE   C2B 4322   0.038   5.506   4.947 -0.3843 -0.2059 -0.0856
  387POPE   C3B 4323   0.145   5.406   4.486  0.0522  0.0176  0.1027
  387POPE   C4B 4324   0.178   5.701   4.220 -0.1034 -0.0907 -0.2720
  388POPC   NC3 4325   8.232   1.107   6.521  0.1953 -0.1071 -0.1173
  388POPC   PO4 4326   8.634   1.085   6.401 -0.1647 -0.2622  0.1464
  388POPC   GL1 4327   8.482   0.785   6.110  0.0019  0.0536  0.0700
  388POPC   GL2 4328   8.271   0.993   5.870  0.0116 -0.1294  0.1099
  388POPC   C1A 4329   8.654   0.655   5.769 -0.1697 -0.0918  0.1207
  388POPC   D2A 4330   8.893   0.774   5.443 -0.1027  0.2435 -0.1680
  388POPC   C3A 4331   9.159   0.502   5.225  0.0583 -0.1461 -0.1311
  388POPC   C4A 4332   9.056   0.083   5.053 -0.0369 -0.1571  0.3888
  388POPC   C1B 4333   8.098   1.265   5.589 -0.1729  0.2218 -0.1297
  388POPC   C2B 4334   8.112   1.368   5.211 -0.0696  0.1745  0.2053
  388POPC   C3B 4335   8.183   1.392   4.809  0.0431  0.1294  0.1318
  388POPC   C4B 4336   8.000   1.123   4.393 -0.1116  0.2736 -0.1645
  389POPE   NH3 4337   0.578   9.379   6.480 -0.3278  0.2651  0.1350
  389POPE   PO4 4338   1.033   9.230   6.590 -0.2420  0.2663 -0.2069
  389POPE   GL1 4339   0.987   9.297   6.126 -0.1568  0.0187 -0.0919
  389POPE   GL2 4340   0.715   9.459   5.949 -0.0921 -0.0483 -0.1093
  389POPE   C1A 4341   1.257   9.331   5.796 -0.1273 -0.2232  0.1219
  389POPE   D2A 4342   1.693   9.597   5.674 -0.1993  0.0850 -0.2229
  389POPE   C3A 4343   1.485   9.748   5.333 -0.0405  0.1963  0.4307
  389POPE   C4A 4344   1.232   9.724   4.977  0.0115 -0.1143  0.0705
  389POPE   C1B 4345   0.776   9.146   5.627  0.0904  0.2614  0.4786
  389POPE   C2B 4346   0.714   9.097   5.130  0.2432 -0.0307  0.1403
  389POPE   C3B 4347   0.685   8.944   4.706  0.1171  0.1409 -0.1832
  389POPE   C4B 4348   0.970   8.738   4.393  0.0620 -0.1667 -0.0789
  390POPE   NH3 4349   0.531   7.148   6.925  0.2569 -0.1744  0.0314
  390POPE   PO4 4350   0.174   7.283   6.747  0.1113 -0.0733  0.1660
  390POPE   GL1 4351   0.282   6.994   6.415  0.1831 -0.0330  0.0276
  390POPE   GL2 4352   0.050   6.910   6.094  0.4931 -0.1034  0.2433
  390POPE   C1A 4353   0.596   6.704   6.134  0.0093 -0.2149  0.0870
  390POPE   D2A 4354   0.692   6.440   5.842 -0.1846  0.1918 -0.1743
  390POPE   C3A 4355   0.810   6.608   5.438  0.2792 -0.0492 -0.2925
  390POPE   C4A 4356   0.994   6.542   5.033 -0.0045  0.0261  0.1791
  390POPE   C1B 4357   0.186   6.918   5.657  0.0733  0.2607 -0.0981
  390POPE   C2B 4358   0.192   6.790   5.297 -0.2637  0.0770  0.1217
  390POPE   C3B 4359   0.285   6.677   4.991  0.1972  0.0586  0.1543
  390POPE   C4B 4360   0.440   6.535   4.591  0.1936  0.1681  0.1290
  391CHOL   ROH 4361   2.165   2.811   5.652 -0.1340  0.1278 -0.1063
  391CHOL    R1 4362   2.266   2.822   5.387 -0.1395  0.0528 -0.1121
  391CHOL    R2 4363   2.118   2.919   5.175 -0.1212  0.0559 -0.1266
  391CHOL    R3 4364   2.334   3.081   5.141 -0.0780 -0.0090 -0.1595
  391CHOL    R4 4365   2.196   3.084   4.882 -0.1562  0.0969 -0.1126
  391CHOL    R5 4366   2.406   3.037   4.917 -0.1630  0.0191 -0.1908
  391CHOL    C1 4367   2.445   3.332   4.679 -0.1359  0.0599 -0.1354
  391CHOL    C2 4368   2.876   3.440   4.462 -0.1232  0.1418 -0.0716
  392POPE   NH3 4369   9.975   1.134   6.450  0.1808  0.0131  0.1096
  392POPE   PO4 4370  10.186   1.223   6.111 -0.1970 -0.2045 -0.0756
  392POPE   GL1 4371  10.148   1.242   5.746 -0.0321  0.3057 -0.0729
  392POPE   GL2 4372  10.250   1.472   5.603 -0.1092  0.0365  0.0213
  392POPE   C1A 4373  10.023   0.915   5.415 -0.0760 -0.0934  0.4885
  392POPE   D2A 4374   9.963   0.848   4.906  0.0612  0.0535  0.1733
  392POPE   C3A 4375  10.312   0.814   4.606  0.0077 -0.2547  0.0288
  392POPE   C4A 4376  10.808   0.785   4.556 -0.2661 -0.2549 -0.0215
  392POPE   C1B 4377  10.237   1.322   5.122  0.1597  0.1829  0.3153
  392POPE   C2B 4378  10.341   1.476   4.788  0.0293  0.1385 -0.2126
  392POPE   C3B 4379  10.158   1.421   4.497  0.1897 -0.1346  0.0980
  392POPE   C4B 4380  10.156   1.661   4.049 -0.1707  0.0659 -0.2119
  393POPS   CNO 4381  13.622  16.000   6.522 -0.1140  0.0588  0.0033
  393POPS   PO4 4382  13.292  15.743   6.493  0.1558 -0.0659  0.1181
  393POPS   GL1 4383  13.386  15.830   6.026 -0.0794  0.1236 -0.3627
  393POPS   GL2 4384  13.560  15.666   5.898 -0.1948 -0.2576 -0.0152
  393POPS   C1A 4385  13.175  15.935   5.564 -0.1068  0.3246 -0.0482
  393POPS   D2A 4386  13.416  16.059   5.254  0.1623  0.1036  0.1519
  393POPS   C3A 4387  13.216  16.093   4.940 -0.0922 -0.5271 -0.1286
  393POPS   C4A 4388  13.382  16.086   4.519 -0.0732 -0.2224  0.0714
  393POPS   C1B 4389  13.472  15.569   5.411  0.1304 -0.1269 -0.3190
  393POPS   C2B 4390  13.304  15.605   5.014  0.1636 -0.2292  0.2047
  393POPS   C3B 4391  13.393  15.584   4.640  0.2177 -0.1672  0.0959
  393POPS   C4B 4392  13.505  15.624   4.208 -0.1550  0.0640 -0.2170
  394CHOL   ROH 4393  16.434   7.325   5.814 -0.0802  0.1387 -0.0750
  394CHOL    R1 4394  16.482   7.415   5.550  0.0630  0.1126 -0.0585
  394CHOL    R2 4395  16.703   7.336   5.403  0.0293 -0.0744 -0.0109
  394CHOL    R3 4396  16.515   7.264   5.220  0.0078  0.1024 -0.0598
  394CHOL    R4 4397  16.771   7.225   5.083 -0.0002  0.0742 -0.0694
  394CHOL    R5 4398  16.602   7.343   5.012  0.0499  0.1831 -0.0129
  394CHOL    C1 4399  16.635   7.093   4.725 -0.0376  0.3267 -0.1495
  394CHOL    C2 4400  16.907   6.980   4.516  0.2001 -0.0227 -0.0427
  395CHOL   ROH 4401   7.492  15.967   5.716  0.2074 -0.0256  0.0065
  395CHOL    R1 4402   7.474  16.082   5.458  0.0941 -0.0218  0.0165
  395CHOL    R2 4403   7.637  16.005   5.248  0.0495  0.0303 -0.0373
  395CHOL    R3 4404   7.401  15.965   5.121  0.0199 -0.0308  0.0355
  395CHOL    R4 4405   7.594  16.004   4.905 -0.0676  0.0587 -0.0237
  395CHOL    R5 4406   7.408  16.112   4.933 -0.0928 -0.0056  0.0515
  395CHOL    C1 4407   7.347  15.965   4.586 -0.1637  0.0178  0.0525
  395CHOL    C2 4408   6.952  16.008   4.276 -0.3202  0.1143 -0.0294
  396POPE   NH3 4409  10.073   1.742   5.963 -0.2989  0.2802 -0.0665
  396POPE   PO4 4410  10.580   1.848   5.904  0.1113 -0.0249 -0.2158
  396POPE   GL1 4411  10.398   2.028   5.567 -0.1266 -0.0905 -0.1809
  396POPE   GL2 4412  10.010   2.079   5.563 -0.1323 -0.2313 -0.0693
  396POPE   C1A 4413  10.520   2.179   5.136  0.1177  0.0123 -0.1879
  396POPE   D2A 4414  10.567   2.180   4.689 -0.1789 -0.1532 -0.3751
  396POPE   C3A 4415  10.629   1.771   4.424 -0.0449  0.1874  0.2852
  396POPE   C4A 4416  10.722   1.518   3.956  0.2234  0.2539 -0.4413
  396POPE   C1B 4417  10.177   1.856   5.121  0.4167  0.1264 -0.1806
  396POPE   C2B 4418   9.990   1.829   4.720 -0.0477  0.1231  0.0778
  396POPE   C3B 4419   9.674   1.731   4.382  0.4057 -0.0320 -0.2217
  396POPE   C4B 4420   9.679   1.576   3.907  0.3776 -0.3793 -0.1829
  397POSM   NC3 4421  15.955   4.308   6.592 -0.1731  0.2099  0.0650
  397POSM   PO4 4422  15.564   4.456   6.622  0.1555  0.0153 -0.0844
  397POSM   AM1 4423  15.717   4.336   6.204 -0.3920  0.0027  0.0068
  397POSM   AM2 4424  15.644   4.010   6.284  0.0106  0.0714  0.3116
  397POSM   T1A 4425  15.514   4.374   5.740 -0.0523  0.2271 -0.0891
  397POSM   C2A 4426  15.288   4.309   5.293 -0.4350 -0.3097  0.1097
  397POSM   C3A 4427  15.022   4.532   4.899  0.2040  0.1357 -0.1833
  397POSM   C1B 4428  15.487   3.931   5.947  0.1725 -0.0460 -0.0700
  397POSM   D2B 4429  15.015   4.094   5.721 -0.3492  0.0484  0.1108
  397POSM   C3B 4430  14.699   4.341   6.006  0.1079 -0.1205  0.3120
  397POSM   C4B 4431  14.573   4.755   5.922 -0.0855 -0.2235  0.0719
  398CHOL   ROH 4432  13.832  13.709   5.789 -0.1165 -0.1437 -0.0556
  398CHOL    R1 4433  13.921  13.741   5.522 -0.0557 -0.0815 -0.0284
  398CHOL    R2 4434  13.830  13.581   5.316  0.0604 -0.0942 -0.0710
  398CHOL    R3 4435  13.769  13.821   5.201  0.0008 -0.1045 -0.0609
  398CHOL    R4 4436  13.760  13.628   4.980  0.0364 -0.0977 -0.0665
  398CHOL    R5 4437  13.875  13.813   4.987 -0.0064 -0.0719 -0.0650
  398CHOL    C1 4438  13.662  13.880   4.678 -0.0335 -0.1094 -0.0544
  398CHOL    C2 4439  14.036  14.159   4.587  0.2783  0.0048 -0.2278
  399POPE   NH3 4440   1.014  10.256   6.518 -0.0609 -0.1085 -0.0798
  399POPE   PO4 4441   0.650   9.968   6.590 -0.0489 -0.3448 -0.5065
  399POPE   GL1 4442   0.606  10.095   6.153  0.0259  0.1351 -0.1825
  399POPE   GL2 4443   0.575  10.339   6.135  0.1836 -0.1240  0.0336
  399POPE   C1A 4444   0.673  10.114   5.631  0.0041  0.1729  0.0514
  399POPE   D2A 4445   0.838  10.019   5.203  0.0802 -0.0783  0.1002
  399POPE   C3A 4446   0.578  10.056   4.765 -0.1963  0.1657 -0.0899
  399POPE   C4A 4447   0.407  10.061   4.402 -0.0756  0.4215 -0.0467
  399POPE   C1B 4448   0.667  10.596   5.782  0.0534  0.2526  0.2344
  399POPE   C2B 4449   0.499  10.489   5.315  0.1453 -0.0090 -0.1290
  399POPE   C3B 4450   0.466  10.510   4.907 -0.1762 -0.0381  0.0388
  399POPE   C4B 4451   0.551  10.552   4.487  0.2627 -0.0894 -0.0827
  400CHOL   ROH 4452  15.029  12.800   6.320 -0.1116  0.0357 -0.0259
  400CHOL    R1 4453  15.081  13.011   6.139 -0.0873  0.0447 -0.0109
  400CHOL    R2 4454  15.327  13.047   6.019 -0.0457  0.0906  0.0711
  400CHOL    R3 4455  15.180  13.042   5.790  0.0294  0.0538  0.0250
  400CHOL    R4 4456  15.390  13.240   5.739 -0.0465  0.1375  0.1045
  400CHOL    R5 4457  15.175  13.270   5.717 -0.0445  0.0514  0.0403
  400CHOL    C1 4458  15.289  13.348   5.362  0.0234  0.1303  0.0806
  400CHOL    C2 4459  15.228  13.569   4.922 -0.1168  0.2699 -0.2491
  401CHOL   ROH 4460   0.073   6.462   5.884 -0.0004  0.1298 -0.1335
  401CHOL    R1 4461   0.106   6.367   5.620  0.1078  0.0965 -0.1087
  401CHOL    R2 4462   0.354   6.346   5.500  0.1715 -0.0498  0.0431
  401CHOL    R3 4463   0.277   6.088   5.459  0.0505 -0.0083  0.0118
  401CHOL    R4 4464   0.508   6.125   5.282  0.0552 -0.0925  0.0033
  401CHOL    R5 4465   0.311   6.052   5.224  0.0191  0.0071  0.0054
  401CHOL    C1 4466   0.525   5.755   5.118 -0.1261 -0.0784 -0.0493
  401CHOL    C2 4467   0.799   5.606   5.308 -0.0398 -0.2281  0.2264
  402CHOL   ROH 4468   1.751  10.444   5.981  0.0270 -0.1172 -0.1772
  402CHOL    R1 4469   1.754  10.599   5.744 -0.0099 -0.0907 -0.1604
  402CHOL    R2 4470   1.602  10.535   5.522 -0.1480  0.0107 -0.0928
  402CHOL    R3 4471   1.513  10.790   5.550 -0.0082  0.0535 -0.0227
  402CHOL    R4 4472   1.474  10.729   5.266 -0.1299  0.1162 -0.0234
  402CHOL    R5 4473   1.581  10.900   5.349 -0.0141  0.0501 -0.0292
  402CHOL    C1 4474   1.317  11.082   5.143  0.0118  0.2178  0.0829
  402CHOL    C2 4475   1.317  11.154   4.820  0.2543  0.3630 -0.1163
  403POPE   NH3 4476   5.660  15.951   6.452 -0.0223  0.1898  0.2281
  403POPE   PO4 4477   5.961  16.143   6.335 -0.2889 -0.2606  0.4216
  403POPE   GL1 4478   5.872  16.257   5.873  0.3628  0.1427 -0.0883
  403POPE   GL2 4479   6.125  16.234   5.646 -0.1236 -0.4379 -0.1975
  403POPE   C1A 4480   5.674  16.388   5.465  0.0460  0.1295 -0.1302
  403POPE   D2A 4481   5.346  16.546   5.132 -0.0390 -0.1061  0.4845
  403POPE   C3A 4482   5.013  16.364   4.945 -0.4457 -0.2591  0.4440
  403POPE   C4A 4483   4.796  15.955   5.031 -0.5949 -0.3218 -0.0404
  403POPE   C1B 4484   6.283  16.157   5.213 -0.0550  0.0919 -0.1724
  403POPE   C2B 4485   6.257  16.174   4.779  0.1305 -0.0032 -0.0316
  403POPE   C3B 4486   6.400  16.020   4.467  0.1777  0.0707  0.0065
  403POPE   C4B 4487   6.157  15.711   4.307  0.0213 -0.2288  0.4633
  404POPC   NC3 4488   1.429  12.860   6.436  0.1850 -0.0975 -0.3652
  404POPC   PO4 4489   1.543  13.176   6.125 -0.1383  0.2449  0.1214
  404POPC   GL1 4490   1.581  13.024   5.889  0.0763  0.0948  0.0829
  404POPC   GL2 4491   1.527  13.121   5.570  0.0570 -0.0118 -0.1122
  404POPC   C1A 4492   1.454  12.668   5.629 -0.1741  0.0964 -0.4100
  404POPC   D2A 4493   1.193  12.457   5.285 -0.1027  0.0558  0.2673
  404POPC   C3A 4494   0.828  12.477   5.234  0.0394 -0.0396  0.0340
  404POPC   C4A 4495   0.557  12.738   5.129  0.3059  0.0213 -0.0994
  404POPC   C1B 4496   1.813  13.382   5.196 -0.0129  0.0108 -0.3353
  404POPC   C2B 4497   1.907  13.583   4.727 -0.0351  0.1930 -0.1781
  404POPC   C3B 4498   2.348  13.544   4.569  0.1332  0.1298  0.0460
  404POPC   C4B 4499   2.855  13.525   4.537 -0.2278  0.2189  0.1676
  405POSM   NC3 4500   1.281   3.908   6.238  0.0416  0.1203  0.1379
  405POSM   PO4 4501   1.444   4.341   6.234  0.0483  0.2219 -0.0005
  405POSM   AM1 4502   1.364   4.479   5.882  0.0465 -0.0989  0.0149
  405POSM   AM2 4503   1.163   4.158   5.812  0.1503 -0.2079 -0.0331
  405POSM   T1A 4504   1.379   4.574   5.509 -0.0230  0.0186 -0.0201
  405POSM   C2A 4505   1.201   4.755   5.002  0.2019 -0.2431  0.0029
  405POSM   C3A 4506   0.909   4.946   4.728 -0.2389 -0.0630 -0.1362
  405POSM   C1B 4507   1.008   3.895   5.553 -0.1102 -0.2495  0.3393
  405POSM   D2B 4508   0.850   3.894   5.173 -0.2737 -0.0317 -0.0377
  405POSM   C3B 4509   0.535   3.748   4.984  0.1839  0.3336 -0.2915
  405POSM   C4B 4510   0.318   3.555   4.573 -0.0417  0.1715 -0.0086
  406POPS   CNO 4511   3.234  15.956   6.636 -0.3639  0.3513  0.2268
  406POPS   PO4 4512   3.350  15.761   6.276  0.1409 -0.3166 -0.0377
  406POPS   GL1 4513   3.097  15.623   5.970  0.0137 -0.0653  0.2056
  406POPS   GL2 4514   3.214  15.354   5.937 -0.2931  0.1884  0.0650
  406POPS   C1A 4515   3.238  15.800   5.616 -0.2225  0.0587 -0.0332
  406POPS   D2A 4516   3.255  15.694   5.256 -0.1763  0.1795  0.0866
  406POPS   C3A 4517   3.545  15.836   5.001  0.1889 -0.1129  0.3008
  406POPS   C4A 4518   3.734  15.780   4.628 -0.0417  0.2293  0.2123
  406POPS   C1B 4519   3.222  15.323   5.579 -0.0592  0.2938  0.1378
  406POPS   C2B 4520   3.069  15.176   5.139  0.0193 -0.2567 -0.2009
  406POPS   C3B 4521   2.920  15.020   4.796  0.4289  0.0213 -0.1366
  406POPS   C4B 4522   2.676  14.947   4.476 -0.1996 -0.3151 -0.2212
  407POPC   NC3 4523  12.790  15.017   7.057  0.1124 -0.1705  0.0430
  407POPC   PO4 4524  12.733  14.952   6.567 -0.0061  0.2242 -0.1485
  407POPC   GL1 4525  12.748  15.000   6.110 -0.2809 -0.0371 -0.3669
  407POPC   GL2 4526  13.050  14.847   6.045 -0.1376 -0.1846  0.4290
  407POPC   C1A 4527  12.784  15.127   5.631  0.0811 -0.1528 -0.1812
  407POPC   D2A 4528  13.066  15.291   5.319  0.0812  0.1539 -0.0245
  407POPC   C3A 4529  13.064  15.245   4.864  0.0742  0.1843 -0.0354
  407POPC   C4A 4530  13.195  15.086   4.440  0.1123  0.0400 -0.1938
  407POPC   C1B 4531  13.234  14.773   5.627  0.1731  0.3603  0.1876
  407POPC   C2B 4532  13.546  14.427   5.613 -0.1965  0.1472  0.0168
  407POPC   C3B 4533  13.692  14.282   5.327  0.1546  0.1952 -0.0523
  407POPC   C4B 4534  13.277  14.022   5.100  0.0832 -0.1831  0.0155
  408POPS   CNO 4535   3.947   0.820   6.404  0.1798 -0.2358  0.0620
  408POPS   PO4 4536   4.129   0.476   6.531 -0.0351  0.0290  0.1373
  408POPS   GL1 4537   4.121   0.573   6.030  0.1775  0.1022 -0.2650
  408POPS   GL2 4538   4.342   0.752   5.889  0.1540 -0.2053 -0.0204
  408POPS   C1A 4539   4.073   0.466   5.648  0.1103 -0.1288 -0.1596
  408POPS   D2A 4540   4.017   0.618   5.211 -0.2451  0.1558  0.1203
  408POPS   C3A 4541   3.986   1.092   5.154  0.1484 -0.1337 -0.2477
  408POPS   C4A 4542   3.978   1.565   5.138 -0.2341 -0.0404 -0.2205
  408POPS   C1B 4543   4.336   0.954   5.546  0.4165  0.1713 -0.1017
  408POPS   C2B 4544   4.151   1.361   5.540 -0.0785 -0.0231  0.0324
  408POPS   C3B 4545   4.220   1.763   5.622  0.0251  0.1097 -0.0747
  408POPS   C4B 4546   4.599   2.039   5.627  0.0846  0.0923 -0.3700
  409POSM   NC3 4547  13.668   2.346   6.606 -0.1943  0.1692 -0.1052
  409POSM   PO4 4548  13.484   2.032   6.355 -0.0069  0.3176 -0.0137
  409POSM   AM1 4549  13.390   1.939   5.908 -0.0846 -0.2367  0.0774
  409POSM   AM2 4550  13.385   1.597   5.827 -0.2929 -0.2147  0.2346
  409POSM   T1A 4551  13.258   2.234   5.608 -0.1101  0.0587 -0.3252
  409POSM   C2A 4552  13.026   2.529   5.191 -0.1902  0.1688  0.2721
  409POSM   C3A 4553  12.994   2.674   4.772 -0.1875  0.0229 -0.4011
  409POSM   C1B 4554  13.126   1.688   5.450  0.1047 -0.0940 -0.2423
  409POSM   D2B 4555  12.944   2.019   5.253  0.1575  0.4374 -0.0155
  409POSM   C3B 4556  13.204   2.170   4.846  0.2265 -0.0544 -0.0491
  409POSM   C4B 4557  13.326   2.424   4.457  0.4234 -0.0618 -0.0169
  410POPE   NH3 4558   0.876  11.189   6.719 -0.2018  0.2316  0.1075
  410POPE   PO4 4559   0.874  10.870   6.462  0.2021 -0.1041 -0.3302
  410POPE   GL1 4560   0.884  10.953   6.014  0.2385 -0.2015  0.2617
  410POPE   GL2 4561   0.682  11.163   5.917  0.1046  0.0352  0.1908
  410POPE   C1A 4562   1.027  10.807   5.512  0.1392 -0.0254 -0.2716
  410POPE   D2A 4563   0.868  10.843   5.178  0.1449 -0.0701  0.1218
  410POPE   C3A 4564   0.938  10.445   5.063  0.1298 -0.0691  0.0750
  410POPE   C4A 4565   1.098  10.138   4.734 -0.0012 -0.1236 -0.1744
  410POPE   C1B 4566   0.435  11.003   5.525 -0.0458 -0.0668  0.0720
  410POPE   C2B 4567   0.388  10.956   5.202  0.0433  0.2147  0.1363
  410POPE   C3B 4568   0.516  11.000   4.824 -0.2750  0.2496  0.1049
  410POPE   C4B 4569   0.851  11.308   4.606  0.1756 -0.1800  0.2101
  411POPE   NH3 4570   3.058  15.279   6.407 -0.0387 -0.0443 -0.2595
  411POPE   PO4 4571   2.614  15.282   6.568  0.3004 -0.3489  0.0603
  411POPE   GL1 4572   2.681  15.340   6.135  0.3332  0.1946 -0.1313
  411POPE   GL2 4573   2.516  15.570   5.872  0.1979 -0.0355  0.0570
  411POPE   C1A 4574   2.569  15.047   5.804  0.4033 -0.2120 -0.3607
  411POPE   D2A 4575   2.665  15.033   5.351 -0.2153  0.2194  0.0286
  411POPE   C3A 4576   2.501  14.734   5.031  0.1202 -0.0142  0.0656
  411POPE   C4A 4577   2.513  14.468   4.720  0.0322  0.0368  0.1553
  411POPE   C1B 4578   2.749  15.550   5.545 -0.0855  0.2534 -0.1926
  411POPE   C2B 4579   2.748  15.543   5.145  0.2318 -0.1021  0.3974
  411POPE   C3B 4580   2.693  15.665   4.684  0.0742 -0.2268  0.0442
  411POPE   C4B 4581   2.416  15.406   4.396  0.3020  0.2041  0.0895
  412POPS   CNO 4582  13.689   3.634   6.341 -0.1335  0.4594 -0.0649
  412POPS   PO4 4583  13.692   3.218   6.445 -0.2730  0.2518  0.0209
  412POPS   GL1 4584  13.911   3.083   6.028 -0.0098 -0.0126 -0.1489
  412POPS   GL2 4585  13.936   3.330   5.968 -0.4787  0.0038  0.1058
  412POPS   C1A 4586  13.880   2.921   5.651 -0.0329 -0.1494 -0.3440
  412POPS   D2A 4587  13.676   2.642   5.418  0.0260 -0.1205 -0.0113
  412POPS   C3A 4588  13.571   2.680   4.994 -0.4920 -0.0602  0.1239
  412POPS   C4A 4589  13.466   2.927   4.737  0.0990  0.0879 -0.0094
  412POPS   C1B 4590  14.423   3.297   5.890  0.3376 -0.1433  0.1269
  412POPS   C2B 4591  14.363   2.960   5.615  0.2060  0.1020  0.1094
  412POPS   C3B 4592  14.134   2.779   5.195  0.1836 -0.0332  0.0175
  412POPS   C4B 4593  14.086   2.649   4.760 -0.0004  0.1926  0.1454
  413POPS   CNO 4594   4.658   0.343   6.561  0.1170 -0.0663  0.1889
  413POPS   PO4 4595   4.668   0.481   6.198 -0.2206  0.0578 -0.0380
  413POPS   GL1 4596   4.602   0.340   5.795  0.0472 -0.0570 -0.1161
  413POPS   GL2 4597   4.481   0.071   5.681  0.1743 -0.0097 -0.0220
  413POPS   C1A 4598   4.683   0.634   5.382  0.1073  0.0252 -0.0385
  413POPS   D2A 4599   4.487   0.656   4.983 -0.1026 -0.0697  0.2632
  413POPS   C3A 4600   4.659   0.718   4.621  0.1558 -0.4088 -0.0679
  413POPS   C4A 4601   4.733   0.352   4.368  0.2208 -0.0590 -0.1487
  413POPS   C1B 4602   4.372   0.278   5.225 -0.1874  0.0071  0.1084
  413POPS   C2B 4603   4.230   0.244   4.808 -0.2270  0.0806 -0.1946
  413POPS   C3B 4604   4.138   0.504   4.469 -0.0555  0.2294  0.0049
  413POPS   C4B 4605   3.995   0.653   4.076 -0.3421 -0.3567  0.1861
  414POSM   NC3 4606   0.616   2.380   6.577 -0.0593  0.1149 -0.5069
  414POSM   PO4 4607   1.042   2.286   6.323  0.0772 -0.1112 -0.0390
  414POSM   AM1 4608   1.115   2.547   5.968  0.2472 -0.3335 -0.1266
  414POSM   AM2 4609   1.104   2.804   5.952  0.2503 -0.0588  0.0933
  414POSM   T1A 4610   0.820   2.650   5.589  0.2128  0.1491 -0.1271
  414POSM   C2A 4611   0.420   2.552   5.309  0.0960 -0.0213 -0.0147
  414POSM   C3A 4612   0.338   2.823   4.927  0.0353  0.0796 -0.0639
  414POSM   C1B 4613   1.352   2.478   5.546  0.0914 -0.2955 -0.1323
  414POSM   D2B 4614   1.545   2.220   5.148  0.2360  0.0485 -0.4064
  414POSM   C3B 4615   1.309   2.288   4.749  0.2101  0.1432 -0.2870
  414POSM   C4B 4616   0.996   2.492   4.442  0.3255  0.0100 -0.0731
  415POPC   NC3 4617  12.827   2.517   6.398 -0.0966  0.1126  0.0662
  415POPC   PO4 4618  12.903   2.103   6.258 -0.3149 -0.2937  0.0152
  415POPC   GL1 4619  12.715   2.359   5.900 -0.0937 -0.3059  0.2258
  415POPC   GL2 4620  12.809   2.703   5.888  0.0327 -0.0862 -0.1754
  415POPC   C1A 4621  12.602   2.393   5.444 -0.1413  0.0404  0.4022
  415POPC   D2A 4622  12.585   2.413   4.998 -0.0959 -0.1268  0.5018
  415POPC   C3A 4623  12.415   2.099   4.877  0.0436 -0.3026  0.0285
  415POPC   C4A 4624  12.434   1.889   5.080  0.0174  0.1415 -0.0197
  415POPC   C1B 4625  12.476   2.882   5.681 -0.0205 -0.2110  0.0787
  415POPC   C2B 4626  12.447   2.874   5.261  0.0181 -0.1511  0.2481
  415POPC   C3B 4627  12.435   2.929   4.815 -0.2874  0.1001  0.1331
  415POPC   C4B 4628  12.577   2.792   4.502 -0.0161  0.0923 -0.2539
  416POPS   CNO 4629   3.608   2.603   6.075 -0.1562 -0.1271 -0.3422
  416POPS   PO4 4630   3.741   2.203   6.324 -0.1386  0.0456 -0.0403
  416POPS   GL1 4631   3.760   2.073   5.926  0.2548  0.0006  0.0077
  416POPS   GL2 4632   3.980   2.367   5.811 -0.1518  0.0309  0.1426
  416POPS   C1A 4633   3.730   1.916   5.476 -0.1261 -0.1477  0.0314
  416POPS   D2A 4634   3.723   1.957   5.033 -0.1953  0.1687 -0.1810
  416POPS   C3A 4635   3.903   1.883   4.714  0.2243 -0.1146 -0.0001
  416POPS   C4A 4636   4.276   2.149   4.696 -0.1803 -0.0887  0.0687
  416POPS   C1B 4637   4.141   2.299   5.435  0.2341 -0.3703 -0.1798
  416POPS   C2B 4638   4.223   1.977   5.154  0.1013 -0.1493 -0.0119
  416POPS   C3B 4639   4.459   1.597   5.176 -0.1482  0.0357  0.1512
  416POPS   C4B 4640   4.911   1.562   4.969 -0.2176  0.4283  0.3402
  417POPE   NH3 4641   3.537  16.232   6.396  0.0821  0.0572 -0.1460
  417POPE   PO4 4642   3.832  15.855   6.493  0.0897  0.2923 -0.1000
  417POPE   GL1 4643   3.807  15.885   6.044 -0.0937 -0.1236 -0.0717
  417POPE   GL2 4644   3.641  15.606   5.849  0.0111 -0.1033  0.4714
  417POPE   C1A 4645   3.754  16.139   5.615 -0.4393 -0.1114 -0.0753
  417POPE   D2A 4646   3.912  16.148   5.169 -0.0479 -0.3683  0.3852
  417POPE   C3A 4647   3.842  16.255   4.795  0.2695  0.2818  0.1181
  417POPE   C4A 4648   3.622  16.630   4.682 -0.1884 -0.2239  0.1957
  417POPE   C1B 4649   3.747  15.706   5.418  0.0521 -0.0523 -0.0159
  417POPE   C2B 4650   3.952  15.546   5.028 -0.0929  0.2278  0.3441
  417POPE   C3B 4651   3.923  15.114   4.688 -0.4446 -0.0253 -0.3469
  417POPE   C4B 4652   3.902  14.676   4.701 -0.1072 -0.2429 -0.1813
  418POPE   NH3 4653   2.106  13.354   6.231 -0.2394  0.1330  0.2654
  418POPE   PO4 4654   2.487  13.564   6.278 -0.3550 -0.0675  0.0745
  418POPE   GL1 4655   2.361  13.758   5.923  0.0943 -0.0111 -0.0019
  418POPE   GL2 4656   2.562  13.842   5.646  0.0005  0.1738 -0.0410
  418POPE   C1A 4657   2.130  13.678   5.490 -0.5730  0.0633 -0.2195
  418POPE   D2A 4658   2.363  13.604   5.072  0.5199  0.1355  0.0561
  418POPE   C3A 4659   2.636  13.884   4.859 -0.0323  0.2969 -0.1538
  418POPE   C4A 4660   2.885  14.114   4.577  0.1785 -0.2191  0.2514
  418POPE   C1B 4661   2.393  14.039   5.285 -0.0592 -0.3205  0.0603
  418POPE   C2B 4662   2.092  14.371   5.108 -0.1518  0.3038 -0.2360
  418POPE   C3B 4663   2.062  14.683   4.649  0.1963  0.2208 -0.1908
  418POPE   C4B 4664   2.262  14.764   4.251  0.1018  0.1706  0.0882
  419POPS   CNO 4665   0.390   5.733   6.617  0.0260 -0.0421 -0.1318
  419POPS   PO4 4666   0.271   5.588   6.188 -0.1313 -0.2016  0.2942
  419POPS   GL1 4667   0.385   5.469   5.774  0.3162 -0.0891 -0.4671
  419POPS   GL2 4668   0.324   5.592   5.553  0.0476 -0.0125 -0.1803
  419POPS   C1A 4669   0.540   5.217   5.320 -0.0942 -0.2150  0.2430
  419POPS   D2A 4670   0.420   5.206   4.922 -0.0558  0.2245  0.4875
  419POPS   C3A 4671   0.679   5.386   4.616  0.0250 -0.0075  0.0608
  419POPS   C4A 4672   0.784   5.713   4.649 -0.1330  0.1867 -0.1683
  419POPS   C1B 4673  -0.143   5.740   5.414  0.1047  0.2390  0.0367
  419POPS   C2B 4674  -0.265   5.873   5.050 -0.0937 -0.1893  0.1169
  419POPS   C3B 4675  -0.262   5.745   4.579  0.2064 -0.3033  0.0251
  419POPS   C4B 4676  -0.446   5.846   4.205 -0.0293  0.1921  0.0436
  420POPE   NH3 4677   0.171   4.674   6.735 -0.2023 -0.0313  0.2960
  420POPE   PO4 4678  -0.148   4.550   6.409  0.1427  0.3351  0.1759
  420POPE   GL1 4679  -0.379   4.468   6.048  0.2083  0.4291  0.1466
  420POPE   GL2 4680  -0.418   4.663   5.738  0.0774  0.1050 -0.0294
  420POPE   C1A 4681  -0.659   4.138   5.780 -0.0868  0.0330  0.0673
  420POPE   D2A 4682  -0.927   4.021   5.470  0.0464 -0.1147  0.1747
  420POPE   C3A 4683  -1.000   4.068   5.011  0.1171 -0.2389  0.0045
  420POPE   C4A 4684  -0.875   4.247   4.661 -0.2859  0.0356 -0.0296
  420POPE   C1B 4685  -0.326   4.821   5.370 -0.1905 -0.0477  0.4910
  420POPE   C2B 4686  -0.453   4.683   4.909 -0.3385  0.1895 -0.3134
  420POPE   C3B 4687  -0.618   4.648   4.598  0.3265  0.4006  0.2646
  420POPE   C4B 4688  -0.589   4.410   4.197 -0.2074 -0.0004  0.0713
  421POPS   CNO 4689  15.157   3.054   6.326  0.0715 -0.1992  0.0004
  421POPS   PO4 4690  15.006   2.574   6.182 -0.2656 -0.5299  0.2625
  421POPS   GL1 4691  14.892   2.670   5.731  0.0927  0.2814 -0.1824
  421POPS   GL2 4692  14.664   2.474   5.660 -0.0835  0.0230 -0.1042
  421POPS   C1A 4693  15.073   2.777   5.450 -0.1114 -0.1939 -0.1657
  421POPS   D2A 4694  15.176   3.105   5.147  0.1066 -0.1076 -0.2844
  421POPS   C3A 4695  14.920   3.063   4.801  0.0360 -0.2632  0.1079
  421POPS   C4A 4696  14.786   3.371   4.362 -0.1201  0.3544 -0.1959
  421POPS   C1B 4697  14.962   2.254   5.404 -0.0505 -0.2539 -0.2047
  421POPS   C2B 4698  14.912   2.028   5.083 -0.2440 -0.0646  0.0999
  421POPS   C3B 4699  14.690   1.697   4.990 -0.2377 -0.0079  0.3818
  421POPS   C4B 4700  14.283   1.641   4.736  0.1780  0.3386  0.1239
  422POPE   NH3 4701   2.268   2.172   6.493 -0.1307  0.0658  0.2639
  422POPE   PO4 4702   1.853   2.123   6.353 -0.2092  0.2146  0.1163
  422POPE   GL1 4703   1.987   1.992   5.891 -0.0645  0.1088  0.0928
  422POPE   GL2 4704   1.785   2.232   5.769 -0.0428 -0.2391  0.0129
  422POPE   C1A 4705   2.230   2.083   5.562  0.0555  0.2507 -0.1979
  422POPE   D2A 4706   2.331   1.961   5.254  0.2303 -0.0493 -0.2508
  422POPE   C3A 4707   2.173   2.113   4.904 -0.0155  0.1625  0.1944
  422POPE   C4A 4708   2.045   1.884   4.525  0.2724  0.2630 -0.1109
  422POPE   C1B 4709   2.017   2.419   5.322  0.0838 -0.0679 -0.0445
  422POPE   C2B 4710   2.202   2.589   4.855  0.0491  0.2572  0.0892
  422POPE   C3B 4711   2.341   2.825   4.458  0.0679  0.0156  0.1178
  422POPE   C4B 4712   2.532   2.680   4.159 -0.2946 -0.0488  0.0960
  423POPC   NC3 4713  11.364   0.785   6.506  0.0850 -0.1186 -0.0091
  423POPC   PO4 4714  11.543   1.231   6.283  0.0505 -0.0218  0.1620
  423POPC   GL1 4715  11.652   1.630   5.993 -0.2754  0.0695  0.2201
  423POPC   GL2 4716  11.963   1.543   5.899  0.2031 -0.0459  0.0852
  423POPC   C1A 4717  11.515   1.851   5.656  0.2281 -0.1834  0.3978
  423POPC   D2A 4718  11.298   1.934   5.257 -0.1283 -0.0489 -0.0523
  423POPC   C3A 4719  11.490   1.994   4.849  0.0398  0.1039  0.1972
  423POPC   C4A 4720  11.560   1.649   4.541  0.0475 -0.1687  0.0757
  423POPC   C1B 4721  11.909   1.440   5.532 -0.1490  0.0731 -0.2266
  423POPC   C2B 4722  11.647   1.612   5.125 -0.1456  0.1887  0.1152
  423POPC   C3B 4723  11.812   1.279   4.759  0.0848 -0.0625 -0.0320
  423POPC   C4B 4724  11.668   0.854   4.524 -0.1502  0.1023  0.1620
  424POPC   NC3 4725   1.350   4.802   6.441 -0.0052  0.0914 -0.0246
  424POPC   PO4 4726   1.009   5.131   6.318  0.0430  0.4588  0.0820
  424POPC   GL1 4727   1.147   5.265   5.875 -0.1812  0.1192  0.0554
  424POPC   GL2 4728   1.226   4.997   5.844 -0.2692 -0.3686 -0.0515
  424POPC   C1A 4729   1.201   5.349   5.457  0.3309  0.0674 -0.0620
  424POPC   D2A 4730   1.081   5.238   5.111  0.1017  0.1202 -0.2037
  424POPC   C3A 4731   1.154   5.365   4.747 -0.0960 -0.2558 -0.0509
  424POPC   C4A 4732   1.106   5.375   4.326  0.1105  0.1104  0.1486
  424POPC   C1B 4733   0.946   4.880   5.487  0.3471 -0.0150  0.3743
  424POPC   C2B 4734   0.654   4.739   5.133 -0.1900 -0.1999 -0.2272
  424POPC   C3B 4735   0.458   4.686   4.753  0.0299  0.3156  0.0552
  424POPC   C4B 4736   0.268   4.872   4.529  0.0422  0.1142  0.0266
  425POPC   NC3 4737   1.362  11.985   6.671 -0.0474  0.0550 -0.2118
  425POPC   PO4 4738   1.878  11.831   6.706  0.0078 -0.0982  0.0121
  425POPC   GL1 4739   1.765  11.944   6.240  0.0439  0.0084  0.1588
  425POPC   GL2 4740   1.842  12.025   5.906  0.2667 -0.2328 -0.2439
  425POPC   C1A 4741   1.505  11.671   5.939  0.0841  0.0646  0.1305
  425POPC   D2A 4742   1.083  11.584   5.779 -0.0344  0.3826  0.2162
  425POPC   C3A 4743   0.883  11.304   5.490 -0.0598 -0.0734 -0.1702
  425POPC   C4A 4744   0.825  11.338   5.124  0.0813  0.2035  0.1265
  425POPC   C1B 4745   1.874  12.382   5.594  0.1942 -0.0545  0.1787
  425POPC   C2B 4746   1.812  12.288   5.177 -0.0960 -0.5104 -0.2329
  425POPC   C3B 4747   1.704  11.967   4.905  0.0277  0.1648 -0.1036
  425POPC   C4B 4748   1.508  11.754   4.544 -0.1781  0.0294 -0.0278
  426POPS   CNO 4749  11.731   0.496   6.847 -0.2496  0.1123  0.0963
  426POPS   PO4 4750  11.860   0.429   6.387  0.1326 -0.0699 -0.1061
  426POPS   GL1 4751  12.079   0.659   6.076  0.2229  0.2352 -0.1180
  426POPS   GL2 4752  12.107   1.023   5.857  0.0223  0.1042 -0.0236
  426POPS   C1A 4753  12.054   0.561   5.602  0.2545 -0.1520 -0.1519
  426POPS   D2A 4754  12.088   0.439   5.202  0.0115 -0.2055  0.2953
  426POPS   C3A 4755  11.988   0.290   4.901 -0.0351  0.1960  0.2427
  426POPS   C4A 4756  11.810   0.047   4.632 -0.0023  0.1105  0.0590
  426POPS   C1B 4757  12.342   0.981   5.451  0.0451  0.1144 -0.0855
  426POPS   C2B 4758  12.470   0.751   5.108  0.0135 -0.1139  0.1818
  426POPS   C3B 4759  12.491   0.607   4.689 -0.2906 -0.0907  0.2725
  426POPS   C4B 4760  12.714   0.425   4.316 -0.2640  0.1298 -0.0372
  427POPS   CNO 4761   4.529  15.638   6.503  0.2997 -0.0107  0.1349
  427POPS   PO4 4762   4.737  15.942   6.404  0.1159 -0.0158  0.1450
  427POPS   GL1 4763   4.668  15.781   5.985  0.0785 -0.0154 -0.0496
  427POPS   GL2 4764   4.960  15.742   5.817 -0.1756 -0.0297 -0.2617
  427POPS   C1A 4765   4.644  15.470   5.585 -0.0100 -0.2126 -0.5251
  427POPS   D2A 4766   5.046  15.350   5.380  0.1057 -0.0134  0.0403
  427POPS   C3A 4767   5.160  15.509   5.002 -0.1568 -0.1651 -0.0055
  427POPS   C4A 4768   4.962  15.286   4.769  0.0286  0.1672  0.0265
  427POPS   C1B 4769   4.736  16.012   5.519  0.1461  0.0232 -0.0149
  427POPS   C2B 4770   4.435  16.312   5.259 -0.1384 -0.0079  0.1377
  427POPS   C3B 4771   4.431  16.401   4.875  0.0684 -0.2197  0.1566
  427POPS   C4B 4772   4.721  16.355   4.488 -0.3909  0.1682  0.2626
  428POPE   NH3 4773   1.580  13.648   6.312  0.1848 -0.0259 -0.2545
  428POPE   PO4 4774   1.166  13.773   6.353  0.0399 -0.1656 -0.0628
  428POPE   GL1 4775   1.294  13.672   5.880  0.1024 -0.3438  0.0239
  428POPE   GL2 4776   1.276  13.450   5.838  0.2525 -0.0698  0.2062
  428POPE   C1A 4777   1.476  13.686   5.452 -0.0652 -0.0968  0.3234
  428POPE   D2A 4778   1.355  13.648   5.027  0.0655  0.2405 -0.0249
  428POPE   C3A 4779   1.112  13.942   4.696  0.2478  0.1930 -0.2113
  428POPE   C4A 4780   1.079  13.669   4.364  0.0318  0.1270 -0.2187
  428POPE   C1B 4781   1.124  13.370   5.357 -0.3462  0.1073 -0.1345
  428POPE   C2B 4782   1.337  13.134   5.089 -0.3682  0.0849  0.0018
  428POPE   C3B 4783   1.572  12.967   4.709  0.3389 -0.2739 -0.1408
  428POPE   C4B 4784   1.347  12.752   4.464  0.2548  0.1651 -0.0444
  429POPS   CNO 4785  14.572  13.681   6.786  0.2491 -0.0518  0.1940
  429POPS   PO4 4786  14.179  13.889   6.574  0.0730 -0.1579 -0.1706
  429POPS   GL1 4787  14.472  13.878   6.256 -0.0852  0.5752 -0.0244
  429POPS   GL2 4788  14.317  13.988   6.049  0.2467  0.0271  0.1563
  429POPS   C1A 4789  14.859  13.751   5.880 -0.0802  0.0667 -0.0812
  429POPS   D2A 4790  15.122  13.768   5.515 -0.0496 -0.2327  0.2917
  429POPS   C3A 4791  15.296  14.012   5.261 -0.3259  0.0516 -0.2142
  429POPS   C4A 4792  15.267  14.352   5.206  0.2700 -0.0552  0.1492
  429POPS   C1B 4793  14.354  13.862   5.686 -0.2819  0.1713 -0.0168
  429POPS   C2B 4794  14.647  13.735   5.375  0.3219 -0.1246 -0.1459
  429POPS   C3B 4795  14.867  13.815   5.086  0.0478 -0.1006 -0.0210
  429POPS   C4B 4796  15.072  14.123   4.818 -0.0462  0.0369  0.1848
  430POPC   NC3 4797  10.765   0.701   6.289  0.0565  0.1483 -0.1908
  430POPC   PO4 4798  11.101   0.946   6.112  0.2825  0.1106 -0.2002
  430POPC   GL1 4799  11.037   0.985   5.643 -0.0011  0.0025  0.0084
  430POPC   GL2 4800  10.877   0.638   5.629 -0.1828 -0.2035 -0.0505
  430POPC   C1A 4801  11.033   0.977   5.233 -0.1190 -0.3024  0.0186
  430POPC   D2A 4802  11.251   0.865   4.866  0.2646  0.0802  0.2751
  430POPC   C3A 4803  11.259   1.120   4.469  0.0071 -0.3573  0.2445
  430POPC   C4A 4804  11.541   1.293   4.219 -0.2021  0.2161 -0.1858
  430POPC   C1B 4805  10.851   0.508   5.177  0.2208 -0.2943 -0.0411
  430POPC   C2B 4806  10.757   0.413   4.851  0.0929 -0.0003 -0.2786
  430POPC   C3B 4807  10.790   0.325   4.481  0.0238  0.1654 -0.1869
  430POPC   C4B 4808  10.557   0.570   4.156  0.1475 -0.0456  0.0190
  431POSM   NC3 4809  13.676  13.854   6.910  0.0268  0.0551 -0.0347
  431POSM   PO4 4810  13.344  13.892   6.759 -0.0660 -0.1121  0.1448
  431POSM   AM1 4811  13.537  13.935   6.349  0.0781 -0.4464  0.0295
  431POSM   AM2 4812  13.824  14.013   6.201  0.0711  0.0304 -0.1486
  431POSM   T1A 4813  13.369  13.971   5.905  0.0210 -0.0797 -0.0055
  431POSM   C2A 4814  13.418  13.902   5.560  0.0500 -0.2935 -0.1081
  431POSM   C3A 4815  13.386  13.461   5.500  0.1042  0.1187 -0.0992
  431POSM   C1B 4816  13.937  14.183   5.800  0.1387  0.2346  0.2233
  431POSM   D2B 4817  14.133  14.120   5.282 -0.2497 -0.2006 -0.0154
  431POSM   C3B 4818  14.338  13.956   5.058 -0.2882 -0.0993  0.1778
  431POSM   C4B 4819  14.542  13.995   4.660  0.0459  0.2069  0.3745
  432POPE   NH3 4820  13.044   0.604   6.139  0.2080  0.0360 -0.1478
  432POPE   PO4 4821  12.948   0.974   6.209 -0.0690  0.0530  0.0459
  432POPE   GL1 4822  12.807   0.848   5.795  0.0265 -0.2618  0.3569
  432POPE   GL2 4823  12.552   0.662   5.849  0.0238  0.0752  0.1693
  432POPE   C1A 4824  12.930   0.857   5.368  0.3406 -0.0854  0.2512
  432POPE   D2A 4825  12.849   1.062   5.013 -0.0463 -0.1024 -0.1432
  432POPE   C3A 4826  12.749   1.368   4.651  0.2216 -0.1119  0.0220
  432POPE   C4A 4827  12.598   1.362   4.320 -0.1771  0.2262 -0.2150
  432POPE   C1B 4828  12.552   0.483   5.490  0.0430  0.0478 -0.0634
  432POPE   C2B 4829  12.588   0.239   5.146  0.1469  0.0737 -0.1472
  432POPE   C3B 4830  12.592   0.092   4.672 -0.2315 -0.1628  0.0629
  432POPE   C4B 4831  12.259  -0.123   4.481  0.2504 -0.1538 -0.1657
  433POPS   CNO 4832   2.213   1.110   6.794 -0.0517 -0.0822 -0.0900
  433POPS   PO4 4833   2.024   1.358   6.602 -0.0847  0.0891 -0.0122
  433POPS   GL1 4834   2.083   1.120   6.310  0.1302  0.1018 -0.3550
  433POPS   GL2 4835   1.809   1.054   6.138 -0.1429  0.0090 -0.2366
  433POPS   C1A 4836   2.257   0.948   5.934  0.0734 -0.1865 -0.0314
  433POPS   D2A 4837   2.378   1.037   5.564 -0.0328 -0.3369  0.0854
  433POPS   C3A 4838   2.773   1.011   5.515  0.0235 -0.1350 -0.1188
  433POPS   C4A 4839   3.140   1.088   5.429  0.0975 -0.3098  0.3408
  433POPS   C1B 4840   2.038   1.437   5.886  0.0069  0.1442  0.2250
  433POPS   C2B 4841   2.203   1.530   5.551  0.1244  0.1984  0.0634
  433POPS   C3B 4842   2.413   1.410   5.230  0.4884 -0.2110 -0.0302
  433POPS   C4B 4843   2.507   1.008   5.068 -0.0725 -0.1487  0.0259
  434POPC   NC3 4844  15.724   2.869   6.330 -0.0888  0.1448 -0.0521
  434POPC   PO4 4845  15.986   2.664   6.164  0.2409 -0.1401 -0.2568
  434POPC   GL1 4846  15.797   2.576   5.874  0.1615  0.3246  0.1663
  434POPC   GL2 4847  15.403   2.761   5.895  0.2494  0.0308 -0.1955
  434POPC   C1A 4848  15.522   2.341   5.587 -0.0194 -0.0857 -0.0684
  434POPC   D2A 4849  15.390   2.187   5.139  0.3498 -0.2076 -0.1223
  434POPC   C3A 4850  15.736   2.079   5.014  0.0032  0.0176  0.0271
  434POPC   C4A 4851  16.125   2.159   4.904  0.0642 -0.1541 -0.2017
  434POPC   C1B 4852  15.529   2.960   5.561  0.2307 -0.0682  0.0332
  434POPC   C2B 4853  15.648   2.946   5.184 -0.0134  0.0683  0.0067
  434POPC   C3B 4854  15.675   3.142   4.770  0.0078 -0.0928  0.0415
  434POPC   C4B 4855  15.724   3.155   4.253  0.1143  0.0109  0.0706
  435POSM   NC3 4856   0.444  11.511   6.818 -0.2630 -0.1113 -0.2867
  435POSM   PO4 4857   0.870  11.677   6.640  0.0177  0.1537  0.0126
  435POSM   AM1 4858   0.740  11.816   6.173 -0.0442 -0.0287  0.0266
  435POSM   AM2 4859   1.036  11.937   6.103  0.1523 -0.0948 -0.3560
  435POSM   T1A 4860   0.584  11.631   5.789 -0.0033  0.1097 -0.0541
  435POSM   C2A 4861   0.453  11.535   5.378 -0.1614  0.3001 -0.1816
  435POSM   C3A 4862   0.322  11.423   4.946 -0.1596 -0.2243 -0.0779
  435POSM   C1B 4863   0.916  12.041   5.614 -0.0545 -0.0303 -0.2334
  435POSM   D2B 4864   0.868  11.771   5.351  0.0023 -0.1209 -0.0243
  435POSM   C3B 4865   0.691  11.835   4.963  0.4831  0.2441 -0.0700
  435POSM   C4B 4866   0.518  11.674   4.601 -0.0391 -0.4185 -0.2044
  436CHOL   ROH 4867  12.898   0.179   5.854 -0.0221  0.0814  0.0071
  436CHOL    R1 4868  12.808   0.036   5.627 -0.0115  0.1217 -0.0229
  436CHOL    R2 4869  12.913  -0.209   5.554 -0.1196  0.0597  0.0295
  436CHOL    R3 4870  12.652  -0.285   5.561 -0.1660  0.2059 -0.0708
  436CHOL    R4 4871  12.762  -0.420   5.325 -0.0880 -0.0439  0.1036
  436CHOL    R5 4872  12.586  -0.292   5.331 -0.0250  0.0576 -0.1089
  436CHOL    C1 4873  12.430  -0.614   5.199 -0.1131  0.0330  0.0525
  436CHOL    C2 4874  12.244  -0.839   4.882 -0.0938 -0.1388  0.1972
  437POPS   CNO 4875  15.665  11.895   6.862  0.1920  0.3304 -0.3233
  437POPS   PO4 4876  15.472  12.106   6.475 -0.2470  0.1575  0.0368
  437POPS   GL1 4877  15.675  12.285   6.094 -0.2076 -0.3910  0.2264
  437POPS   GL2 4878  16.040  12.312   6.039 -0.2447 -0.0768 -0.1845
  437POPS   C1A 4879  15.400  12.570   5.868  0.2052 -0.0109  0.0420
  437POPS   D2A 4880  15.374  12.571   5.438  0.2793 -0.1661  0.2138
  437POPS   C3A 4881  15.216  12.885   5.206  0.1574 -0.1475 -0.1521
  437POPS   C4A 4882  15.429  13.131   4.884  0.0840  0.1494 -0.1422
  437POPS   C1B 4883  16.478  12.382   5.955 -0.0452 -0.1837  0.0143
  437POPS   C2B 4884  16.686  12.470   5.491  0.2407  0.2535 -0.1083
  437POPS   C3B 4885  16.690  12.514   5.037 -0.1277 -0.2301 -0.0299
  437POPS   C4B 4886  16.886  12.598   4.596  0.1740  0.2301 -0.0359
  438POPE   NH3 4887   0.432   3.362   6.220 -0.0486  0.2189  0.1620
  438POPE   PO4 4888   0.882   3.212   6.080  0.2805  0.1629  0.1766
  438POPE   GL1 4889   1.044   3.239   5.671  0.1428 -0.0203 -0.6673
  438POPE   GL2 4890   1.384   3.158   5.568  0.0505  0.0443 -0.3642
  438POPE   C1A 4891   0.950   3.355   5.190  0.2090  0.0117 -0.0350
  438POPE   D2A 4892   0.952   3.462   4.786 -0.1593  0.0025 -0.2144
  438POPE   C3A 4893   0.881   3.937   4.677  0.2796 -0.0145  0.1020
  438POPE   C4A 4894   0.521   4.144   4.635 -0.0200 -0.3566 -0.2659
  438POPE   C1B 4895   1.166   2.858   5.344 -0.1444 -0.1738  0.3069
  438POPE   C2B 4896   1.077   2.543   5.071 -0.1164  0.0449  0.1600
  438POPE   C3B 4897   0.748   2.349   4.838 -0.0559  0.0727 -0.1880
  438POPE   C4B 4898   0.397   2.509   4.537 -0.3515  0.0290 -0.2465
  439POPS   CNO 4899   1.016   4.366   6.555 -0.1087  0.0610  0.2720
  439POPS   PO4 4900   0.767   4.187   6.157 -0.2542 -0.0514 -0.4357
  439POPS   GL1 4901   0.678   4.445   5.773 -0.2015  0.1163  0.0439
  439POPS   GL2 4902   0.486   4.673   5.574 -0.2924 -0.0945 -0.1480
  439POPS   C1A 4903   0.907   4.399   5.343  0.1892  0.0196  0.0742
  439POPS   D2A 4904   0.871   4.387   4.856 -0.0374 -0.2131  0.0115
  439POPS   C3A 4905   0.899   4.535   4.419 -0.0061 -0.0479  0.0431
  439POPS   C4A 4906   0.764   4.891   4.292 -0.0239 -0.0714  0.1950
  439POPS   C1B 4907   0.144   4.731   5.305 -0.2212  0.0298  0.3284
  439POPS   C2B 4908  -0.002   4.874   4.898 -0.1112  0.3341  0.0052
  439POPS   C3B 4909  -0.305   5.052   4.592 -0.1854 -0.0189 -0.3003
  439POPS   C4B 4910  -0.631   5.441   4.375 -0.1465  0.1823 -0.0142
  440POPE   NH3 4911   0.641  13.829   6.490  0.0790 -0.1505  0.2526
  440POPE   PO4 4912   0.797  13.568   6.046  0.0407 -0.2858  0.0262
  440POPE   GL1 4913   0.789  13.196   5.834  0.0141 -0.3510 -0.0233
  440POPE   GL2 4914   1.010  13.003   5.862 -0.1657 -0.0849  0.1801
  440POPE   C1A 4915   0.688  13.247   5.437 -0.1035 -0.1025  0.1073
  440POPE   D2A 4916   0.717  13.200   5.038  0.1532  0.1651 -0.1743
  440POPE   C3A 4917   1.123  13.314   4.716  0.1933 -0.2029  0.1490
  440POPE   C4A 4918   1.465  13.488   4.510 -0.2479  0.0283  0.0530
  440POPE   C1B 4919   1.043  12.902   5.434 -0.1365  0.1217  0.2361
  440POPE   C2B 4920   1.023  12.820   4.914 -0.1083  0.0731 -0.0442
  440POPE   C3B 4921   0.809  12.727   4.545 -0.4074  0.2193  0.1263
  440POPE   C4B 4922   0.604  12.516   4.165  0.1570  0.0762 -0.2003
  441CHOL   ROH 4923   0.129   3.487   5.795  0.0405  0.0326 -0.0040
  441CHOL    R1 4924   0.010   3.568   5.551 -0.0321 -0.2144 -0.0549
  441CHOL    R2 4925   0.018   3.829   5.462 -0.5678 -0.1814 -0.0333
  441CHOL    R3 4926   0.123   3.715   5.239 -0.2084  0.0569  0.0069
  441CHOL    R4 4927  -0.004   3.961   5.143 -0.5632 -0.1240 -0.0096
  441CHOL    R5 4928  -0.038   3.760   5.067 -0.1669 -0.1672 -0.0959
  441CHOL    C1 4929   0.082   3.931   4.748 -0.2232  0.1331  0.0419
  441CHOL    C2 4930   0.024   3.898   4.323 -0.0379  0.1789  0.2329
  442POPC   NC3 4931  14.181  15.372   6.496  0.1892  0.0657  0.2436
  442POPC   PO4 4932  14.097  15.117   6.789 -0.3887 -0.2174 -0.0161
  442POPC   GL1 4933  13.956  14.947   6.308 -0.3835  0.0295  0.1420
  442POPC   GL2 4934  14.066  15.236   6.072 -0.2384  0.1342 -0.2254
  442POPC   C1A 4935  13.852  14.744   5.878  0.0995  0.0834 -0.1483
  442POPC   D2A 4936  13.648  15.093   5.681 -0.0242 -0.1038  0.2820
  442POPC   C3A 4937  13.501  15.047   5.201  0.0483 -0.0711  0.0885
  442POPC   C4A 4938  13.591  14.861   4.796 -0.1678 -0.0964 -0.2903
  442POPC   C1B 4939  14.003  15.480   5.707  0.0880  0.1582 -0.2522
  442POPC   C2B 4940  13.921  15.691   5.354 -0.3448 -0.1860 -0.1093
  442POPC   C3B 4941  13.775  15.949   4.908 -0.2772 -0.2841  0.0067
  442POPC   C4B 4942  13.831  15.960   4.475  0.2337  0.1634 -0.2032
  443CHOL   ROH 4943   1.371   0.760   5.814  0.4084 -0.4197  0.1713
  443CHOL    R1 4944   1.437   0.958   5.622  0.1144 -0.3163  0.1719
  443CHOL    R2 4945   1.683   1.083   5.615 -0.0554  0.0335  0.1550
  443CHOL    R3 4946   1.683   0.998   5.357  0.0392  0.0394  0.1527
  443CHOL    R4 4947   1.910   1.182   5.375  0.0179  0.0488  0.2298
  443CHOL    R5 4948   1.747   1.191   5.231  0.0695  0.0418  0.1759
  443CHOL    C1 4949   2.042   1.160   4.992  0.1494  0.0632  0.2712
  443CHOL    C2 4950   2.273   1.436   4.753  0.1358  0.0853 -0.0831
  444POPS   CNO 4951  16.192   3.285   6.580 -0.0662  0.2654  0.2033
  444POPS   PO4 4952  15.777   3.349   6.468  0.0196  0.0771 -0.0920
  444POPS   GL1 4953  15.859   3.613   6.089 -0.2032  0.1413  0.2733
  444POPS   GL2 4954  16.014   3.798   6.111 -0.3781 -0.2856 -0.3928
  444POPS   C1A 4955  15.679   3.581   5.655 -0.1954  0.1659 -0.2636
  444POPS   D2A 4956  15.649   3.451   5.266  0.0266 -0.0017  0.0162
  444POPS   C3A 4957  15.287   3.548   4.994 -0.2679  0.0133 -0.4088
  444POPS   C4A 4958  15.247   3.366   4.581  0.1067 -0.1051 -0.2917
  444POPS   C1B 4959  16.170   3.707   5.709  0.1121 -0.1876 -0.3507
  444POPS   C2B 4960  16.090   3.833   5.264 -0.1384 -0.4563 -0.0748
  444POPS   C3B 4961  16.163   4.079   4.877 -0.0418  0.0648  0.1020
  444POPS   C4B 4962  16.163   4.068   4.412  0.1261  0.0373 -0.1399
  445CHOL   ROH 4963  15.159  14.310   5.938 -0.0146  0.0279 -0.0879
  445CHOL    R1 4964  15.084  14.281   5.666  0.0549  0.1018 -0.1160
  445CHOL    R2 4965  14.837  14.186   5.590  0.1786 -0.1553 -0.2040
  445CHOL    R3 4966  14.827  14.417   5.447 -0.0852 -0.0761 -0.0637
  445CHOL    R4 4967  14.634  14.240   5.315  0.2184 -0.2765 -0.2580
  445CHOL    R5 4968  14.799  14.346   5.220  0.1156  0.0202 -0.1229
  445CHOL    C1 4969  14.506  14.489   5.022 -0.0060 -0.2727 -0.1578
  445CHOL    C2 4970  14.447  14.478   4.672 -0.0126 -0.0560 -0.0459
  446POSM   NC3 4971  15.831  13.258   6.866 -0.0238 -0.1760  0.0342
  446POSM   PO4 4972  15.749  12.882   6.811 -0.2376  0.1939 -0.2744
  446POSM   AM1 4973  15.784  13.029   6.350 -0.0758 -0.0661  0.0136
  446POSM   AM2 4974  15.601  12.738   6.261  0.0950 -0.1269 -0.2054
  446POSM   T1A 4975  15.794  13.322   6.089  0.1039 -0.0440  0.2440
  446POSM   C2A 4976  15.998  13.212   5.699 -0.4601  0.2045 -0.2724
  446POSM   C3A 4977  15.734  12.956   5.433 -0.3127  0.0588 -0.0253
  446POSM   C1B 4978  15.831  12.817   5.948 -0.0317  0.2408 -0.1644
  446POSM   D2B 4979  15.998  12.619   5.657  0.0464  0.1796 -0.2144
  446POSM   C3B 4980  15.847  12.438   5.303 -0.3481 -0.2043 -0.3189
  446POSM   C4B 4981  15.669  12.678   4.943 -0.1516  0.1351 -0.0522
  447POPE   NH3 4982   2.298  15.747   6.357  0.0763  0.2507 -0.0535
  447POPE   PO4 4983   2.508  16.158   6.302  0.0799  0.2115  0.0214
  447POPE   GL1 4984   2.604  16.064   5.958 -0.2207  0.2168  0.1135
  447POPE   GL2 4985   2.868  16.020   5.803 -0.1317  0.2445  0.0112
  447POPE   C1A 4986   2.386  16.012   5.516  0.2895  0.1016 -0.2743
  447POPE   D2A 4987   2.371  15.848   5.162  0.0957 -0.0110  0.1530
  447POPE   C3A 4988   2.193  15.697   4.858  0.1601  0.0163  0.0465
  447POPE   C4A 4989   1.805  15.675   4.568 -0.0086  0.0011 -0.0055
  447POPE   C1B 4990   2.824  16.100   5.319 -0.1488  0.0830 -0.1845
  447POPE   C2B 4991   2.741  16.138   4.980 -0.1481 -0.0529 -0.3508
  447POPE   C3B 4992   2.514  16.192   4.657  0.1099 -0.0268 -0.1258
  447POPE   C4B 4993   2.099  16.063   4.515 -0.0109 -0.2257  0.0959
  448POPC   NC3 4994  13.556   1.456   6.359  0.0234  0.0534  0.0708
  448POPC   PO4 4995  13.475   1.011   6.294 -0.1471  0.2439 -0.1467
  448POPC   GL1 4996  13.295   1.061   5.841  0.0796  0.1485  0.0729
  448POPC   GL2 4997  13.369   0.810   5.617 -0.1309  0.0617 -0.1849
  448POPC   C1A 4998  13.336   1.280   5.351  0.4381 -0.1715  0.1696
  448POPC   D2A 4999  13.341   1.722   5.013 -0.0731  0.1278  0.1811
  448POPC   C3A 5000  13.733   1.804   4.922  0.0105  0.1089  0.3339
  448POPC   C4A 5001  13.892   1.880   4.442 -0.0643  0.0014  0.1216
  448POPC   C1B 5002  13.365   0.838   5.154 -0.3444 -0.0170  0.0323
  448POPC   C2B 5003  13.215   1.158   4.706 -0.4735 -0.0400 -0.4394
  448POPC   C3B 5004  13.344   1.528   4.537  0.0714  0.0384 -0.0210
  448POPC   C4B 5005  13.393   1.942   4.367  0.2415 -0.1815 -0.0447
  449POPS   CNO 5006  14.160   2.989   6.454 -0.1929 -0.0641  0.2569
  449POPS   PO4 5007  14.098   2.616   6.478 -0.1355  0.4409  0.0651
  449POPS   GL1 5008  14.006   2.584   6.036 -0.2713  0.3706 -0.0610
  449POPS   GL2 5009  13.690   2.437   5.892 -0.0287  0.0463 -0.0469
  449POPS   C1A 5010  14.112   2.492   5.601  0.1893 -0.2307  0.1134
  449POPS   D2A 5011  14.045   2.181   5.128  0.1281  0.0949  0.3420
  449POPS   C3A 5012  14.331   2.149   4.751  0.1834 -0.3017  0.0143
  449POPS   C4A 5013  14.258   2.409   4.350 -0.0923 -0.2725 -0.2688
  449POPS   C1B 5014  13.936   2.065   5.657 -0.1385 -0.1604  0.0357
  449POPS   C2B 5015  14.134   1.771   5.358 -0.1090  0.1427  0.1020
  449POPS   C3B 5016  14.124   1.429   5.127  0.0058 -0.3007 -0.1522
  449POPS   C4B 5017  14.064   0.999   4.885 -0.0788 -0.0222  0.0781
  450POPC   NC3 5018   2.745   0.125   6.464 -0.0933 -0.0676 -0.2366
  450POPC   PO4 5019   3.236   0.077   6.326 -0.1362  0.0291  0.0679
  450POPC   GL1 5020   3.037   0.024   5.933  0.0413  0.1394  0.0219
  450POPC   GL2 5021   2.781  -0.045   5.932  0.2543 -0.0190  0.0330
  450POPC   C1A 5022   3.064   0.208   5.497  0.2151  0.1097  0.1051
  450POPC   D2A 5023   2.850   0.095   5.105 -0.3063  0.0416 -0.1834
  450POPC   C3A 5024   3.006  -0.017   4.652  0.0170 -0.1730 -0.2454
  450POPC   C4A 5025   3.090   0.227   4.244  0.1211 -0.0706 -0.0233
  450POPC   C1B 5026   2.627  -0.105   5.602 -0.0521 -0.1358  0.2748
  450POPC   C2B 5027   2.419  -0.148   5.217  0.3297 -0.1355  0.0727
  450POPC   C3B 5028   2.078  -0.130   4.867  0.0305  0.0631 -0.0238
  450POPC   C4B 5029   2.180  -0.016   4.436  0.3210 -0.1209  0.1120
  451POPC   NC3 5030   4.283  15.957   6.202 -0.1452 -0.0055 -0.0607
  451POPC   PO4 5031   4.065  16.316   6.432  0.2349 -0.0811  0.0710
  451POPC   GL1 5032   3.930  16.352   6.077 -0.1206 -0.1406  0.0101
  451POPC   GL2 5033   4.157  16.341   5.869  0.2780 -0.0624  0.2263
  451POPC   C1A 5034   3.576  16.603   5.801 -0.1854  0.3117 -0.0019
  451POPC   D2A 5035   3.567  16.951   5.449 -0.0157  0.0492 -0.2830
  451POPC   C3A 5036   3.345  16.844   5.110  0.1082 -0.1262  0.3283
  451POPC   C4A 5037   3.265  17.026   4.652  0.0303  0.2530  0.1818
  451POPC   C1B 5038   4.008  16.558   5.553  0.1404 -0.2546 -0.2208
  451POPC   C2B 5039   3.852  16.734   5.151 -0.1008  0.5030 -0.0121
  451POPC   C3B 5040   3.730  17.122   4.810  0.0398  0.3645  0.0213
  451POPC   C4B 5041   3.709  17.339   4.570  0.0675 -0.0260 -0.2541
  452POSM   NC3 5042   1.495  15.548   6.669  0.2747 -0.1264 -0.2923
  452POSM   PO4 5043   1.753  15.705   6.257  0.1803  0.0310  0.0346
  452POSM   AM1 5044   2.043  15.440   6.075  0.1700 -0.2123 -0.0534
  452POSM   AM2 5045   2.207  15.100   6.170  0.1091 -0.3827  0.0780
  452POSM   T1A 5046   2.054  15.388   5.632 -0.0675 -0.3740  0.0799
  452POSM   C2A 5047   2.264  15.393   5.277  0.0558 -0.1084 -0.2775
  452POSM   C3A 5048   2.404  15.190   4.834  0.2477  0.1531  0.0943
  452POSM   C1B 5049   1.941  14.969   5.829  0.3463 -0.2293 -0.0147
  452POSM   D2B 5050   1.510  15.080   5.598 -0.5541 -0.0524  0.0765
  452POSM   C3B 5051   1.512  15.099   5.218  0.0188 -0.1322  0.3798
  452POSM   C4B 5052   1.266  14.980   4.871 -0.0053  0.0482 -0.1477
  453POPC   NC3 5053  12.465   0.956   6.257  0.2561  0.0272  0.1078
  453POPC   PO4 5054  12.226   1.347   6.289 -0.1256 -0.0567 -0.1314
  453POPC   GL1 5055  12.496   1.544   5.974 -0.1849 -0.1369  0.3762
  453POPC   GL2 5056  12.658   1.328   5.934  0.0016 -0.0645 -0.0082
  453POPC   C1A 5057  12.420   1.493   5.485 -0.0239 -0.0834  0.2355
  453POPC   D2A 5058  12.177   1.419   5.090  0.0391  0.1837 -0.0713
  453POPC   C3A 5059  12.103   1.646   4.684 -0.0142 -0.0490  0.3693
  453POPC   C4A 5060  12.418   1.879   4.399 -0.2506  0.3447 -0.0034
  453POPC   C1B 5061  12.867   1.288   5.508 -0.2105  0.0787 -0.1641
  453POPC   C2B 5062  12.801   1.542   5.114 -0.3239 -0.1504  0.1773
  453POPC   C3B 5063  12.850   1.824   4.755 -0.0055  0.0688  0.1300
  453POPC   C4B 5064  12.923   1.750   4.356  0.0050 -0.0170 -0.2280
  454POSM   NC3 5065  14.717   1.771   6.701 -0.3606 -0.1055  0.2286
  454POSM   PO4 5066  14.863   2.002   6.315  0.0543 -0.0239 -0.4333
  454POSM   AM1 5067  14.570   1.935   5.875 -0.0319  0.0140 -0.1690
  454POSM   AM2 5068  14.426   1.636   5.751  0.0723 -0.0262  0.1934
  454POSM   T1A 5069  14.504   2.075   5.485 -0.1636  0.1490  0.0486
  454POSM   C2A 5070  14.504   2.356   5.140  0.1586 -0.0359 -0.1297
  454POSM   C3A 5071  14.628   2.735   5.049 -0.2276  0.0997 -0.1510
  454POSM   C1B 5072  14.876   1.647   5.590 -0.2582 -0.1692  0.4720
  454POSM   D2B 5073  15.113   1.255   5.499 -0.3788 -0.2011  0.0130
  454POSM   C3B 5074  15.019   1.289   4.998  0.1560  0.1008 -0.3705
  454POSM   C4B 5075  15.128   1.316   4.506  0.0130  0.1357 -0.0360
  455POPS   CNO 5076  14.557  14.278   6.598 -0.1530  0.2992  0.2245
  455POPS   PO4 5077  14.693  14.353   6.162 -0.1177  0.1356 -0.3721
  455POPS   GL1 5078  14.428  14.525   5.890 -0.1320  0.0191  0.2845
  455POPS   GL2 5079  14.306  14.852   5.952  0.0435 -0.0813 -0.1264
  455POPS   C1A 5080  14.280  14.523   5.538 -0.2403 -0.0301 -0.0237
  455POPS   D2A 5081  14.058  14.656   5.292 -0.0508  0.3190 -0.2583
  455POPS   C3A 5082  13.925  14.507   4.950 -0.3318 -0.2464 -0.1312
  455POPS   C4A 5083  13.525  14.367   4.696 -0.0151 -0.1559 -0.1655
  455POPS   C1B 5084  14.193  15.015   5.609  0.1760  0.1599  0.2784
  455POPS   C2B 5085  14.098  15.205   5.282 -0.2874  0.0137 -0.2678
  455POPS   C3B 5086  13.816  15.386   4.933  0.2121 -0.1577  0.0324
  455POPS   C4B 5087  13.757  15.318   4.505  0.1183  0.1484  0.1842
  456POSM   NC3 5088  16.420  13.821   6.605  0.2944 -0.2306  0.0386
  456POSM   PO4 5089  16.324  13.497   6.889  0.0142  0.1084 -0.0448
  456POSM   AM1 5090  16.175  13.412   6.450  0.0246  0.0986 -0.2855
  456POSM   AM2 5091  16.153  13.711   6.219 -0.1337  0.2399 -0.1581
  456POSM   T1A 5092  16.376  13.115   6.126 -0.4947 -0.1674  0.2823
  456POSM   C2A 5093  16.465  12.908   5.704 -0.0044 -0.0880 -0.0548
  456POSM   C3A 5094  16.370  12.756   5.276 -0.0738 -0.4053 -0.0590
  456POSM   C1B 5095  15.892  13.772   5.857 -0.0046  0.1211  0.1343
  456POSM   D2B 5096  15.680  13.602   5.511 -0.3969  0.2916 -0.0419
  456POSM   C3B 5097  15.950  13.350   5.185  0.1240  0.1414 -0.0951
  456POSM   C4B 5098  16.360  13.106   4.929  0.1800  0.1940  0.1518
  457CHOL   ROH 5099   3.322  16.221   5.868  0.1158  0.0102 -0.1180
  457CHOL    R1 5100   3.234  16.300   5.611 -0.0566 -0.1396 -0.1065
  457CHOL    R2 5101   3.408  16.378   5.411 -0.2069  0.0658 -0.1641
  457CHOL    R3 5102   3.280  16.185   5.269  0.0092 -0.1275 -0.1023
  457CHOL    R4 5103   3.418  16.346   5.067 -0.3089  0.0690 -0.1672
  457CHOL    R5 5104   3.206  16.296   5.071 -0.2388 -0.2387 -0.0743
  457CHOL    C1 5105   3.303  16.147   4.734 -0.1654 -0.1105 -0.1110
  457CHOL    C2 5106   2.991  16.039   4.506  0.0247 -0.0750  0.0985
  458POPS   CNO 5107   0.171   2.632   6.364 -0.1290  0.2954 -0.1476
  458POPS   PO4 5108   0.612   2.890   6.376 -0.1442 -0.0196  0.3439
  458POPS   GL1 5109   0.446   2.934   5.974 -0.0423 -0.1870  0.2827
  458POPS   GL2 5110   0.105   2.975   5.889 -0.1673  0.0071 -0.1762
  458POPS   C1A 5111   0.476   3.055   5.565 -0.3518 -0.1766 -0.1114
  458POPS   D2A 5112   0.704   2.906   5.183 -0.2490  0.4053  0.2935
  458POPS   C3A 5113   0.764   2.985   4.727 -0.0451  0.0427 -0.3710
  458POPS   C4A 5114   0.726   2.909   4.338 -0.2797 -0.0323 -0.1672
  458POPS   C1B 5115  -0.025   3.119   5.502 -0.1820  0.2612  0.2370
  458POPS   C2B 5116  -0.198   2.780   5.108  0.0291 -0.2113  0.1423
  458POPS   C3B 5117  -0.498   2.712   4.858  0.2904  0.2663 -0.1676
  458POPS   C4B 5118  -0.842   2.440   4.682 -0.0925  0.1901  0.1126
  459POSM   NC3 5119   1.013  14.662   6.827 -0.1958  0.1363  0.0499
  459POSM   PO4 5120   1.412  14.554   6.704  0.2597 -0.2049 -0.0506
  459POSM   AM1 5121   1.675  14.746   6.390 -0.1404 -0.3036 -0.3318
  459POSM   AM2 5122   1.929  14.733   6.386 -0.1939  0.2529  0.3028
  459POSM   T1A 5123   1.483  14.702   5.934  0.0110  0.1748  0.1068
  459POSM   C2A 5124   1.255  14.520   5.540  0.0845 -0.2043 -0.0756
  459POSM   C3A 5125   1.347  14.192   5.305  0.0517  0.1023 -0.0068
  459POSM   C1B 5126   2.241  14.616   6.054  0.2033  0.1768 -0.1995
  459POSM   D2B 5127   2.707  14.509   5.969  0.1784 -0.4104  0.0765
  459POSM   C3B 5128   2.776  14.290   5.686  0.0756  0.3626 -0.0799
  459POSM   C4B 5129   2.888  14.154   5.237  0.2641 -0.1454  0.2479
  460POPC   NC3 5130   1.219   1.095   6.216  0.2134  0.1552  0.2090
  460POPC   PO4 5131   1.160   1.520   6.145 -0.1185 -0.1977 -0.0323
  460POPC   GL1 5132   1.425   1.420   5.842 -0.1305 -0.3216  0.1985
  460POPC   GL2 5133   1.299   1.620   5.682  0.0612  0.1436 -0.1452
  460POPC   C1A 5134   1.752   1.666   5.506 -0.1408  0.2087  0.0895
  460POPC   D2A 5135   1.897   1.678   5.078 -0.1025  0.1622  0.0728
  460POPC   C3A 5136   1.665   1.889   4.811  0.1481 -0.3330  0.1351
  460POPC   C4A 5137   1.806   2.339   4.647 -0.1037  0.0725 -0.1610
  460POPC   C1B 5138   1.139   1.279   5.378 -0.1939  0.1815  0.0289
  460POPC   C2B 5139   0.932   1.362   4.968  0.0071  0.0457 -0.0925
  460POPC   C3B 5140   1.149   1.355   4.533  0.2086  0.0427 -0.0565
  460POPC   C4B 5141   1.519   1.419   4.291  0.0409  0.3197 -0.1855
  461POPC   NC3 5142   3.393   1.828   6.273  0.2131  0.1496 -0.1922
  461POPC   PO4 5143   3.038   1.502   6.313  0.2881 -0.0383  0.0155
  461POPC   GL1 5144   2.774   1.735   5.971  0.1045  0.2507  0.1113
  461POPC   GL2 5145   2.541   1.371   5.936 -0.1638 -0.3558 -0.1897
  461POPC   C1A 5146   2.804   1.966   5.598  0.1365 -0.1710 -0.0588
  461POPC   D2A 5147   2.758   2.151   5.178  0.0925  0.1148 -0.1764
  461POPC   C3A 5148   2.656   1.915   4.895 -0.1512 -0.0560 -0.0084
  461POPC   C4A 5149   2.556   1.735   4.433  0.0558  0.0530  0.0408
  461POPC   C1B 5150   2.816   1.485   5.551 -0.1995 -0.2448 -0.0217
  461POPC   C2B 5151   2.907   1.423   5.084  0.0534  0.1745 -0.0583
  461POPC   C3B 5152   2.942   1.584   4.711 -0.2134 -0.1887 -0.4551
  461POPC   C4B 5153   3.371   1.566   4.513  0.0186  0.1022  0.3425
  462POPC   NC3 5154  14.749   1.302   6.502  0.0000 -0.3556  0.1922
  462POPC   PO4 5155  15.189   1.558   6.579  0.0452 -0.1343  0.1372
  462POPC   GL1 5156  15.341   1.810   6.135  0.1035  0.0302 -0.1739
  462POPC   GL2 5157  15.370   1.475   5.932 -0.0772 -0.0113 -0.1377
  462POPC   C1A 5158  15.346   1.900   5.630  0.0196  0.0562 -0.0169
  462POPC   D2A 5159  15.295   1.686   5.244  0.1924 -0.2836  0.0773
  462POPC   C3A 5160  15.253   1.816   4.804 -0.1769  0.1513 -0.0412
  462POPC   C4A 5161  15.270   2.181   4.581 -0.1444 -0.0002 -0.2694
  462POPC   C1B 5162  15.664   1.468   5.641 -0.2651  0.0741  0.1260
  462POPC   C2B 5163  15.830   1.450   5.177 -0.3278  0.1837  0.0826
  462POPC   C3B 5164  16.083   1.588   4.770 -0.3944  0.1016 -0.0908
  462POPC   C4B 5165  16.251   1.716   4.455  0.1735  0.1665  0.1721
  463POPS   CNO 5166   0.528   4.097   6.644  0.1181  0.2577 -0.0601
  463POPS   PO4 5167   0.303   3.931   6.259 -0.1235 -0.0856  0.0487
  463POPS   GL1 5168   0.392   3.958   5.846 -0.1578  0.0754 -0.1118
  463POPS   GL2 5169   0.723   3.717   5.869  0.1963  0.1675  0.4708
  463POPS   C1A 5170   0.500   4.052   5.503  0.0814 -0.1486  0.0247
  463POPS   D2A 5171   0.452   4.220   5.125 -0.3326  0.0020  0.1737
  463POPS   C3A 5172   0.005   4.389   4.928  0.1314 -0.0571 -0.2474
  463POPS   C4A 5173  -0.140   4.407   4.566  0.1698 -0.0258  0.4896
  463POPS   C1B 5174   0.567   3.559   5.464  0.1776 -0.0277  0.2845
  463POPS   C2B 5175   0.331   3.307   5.132  0.3074  0.0896  0.1154
  463POPS   C3B 5176   0.016   3.191   4.782  0.0123 -0.0031 -0.1588
  463POPS   C4B 5177  -0.403   3.141   4.598  0.0183  0.1244  0.1217
  464POSM   NC3 5178  13.568   0.567   6.403 -0.1034  0.0328  0.0518
  464POSM   PO4 5179  13.939   0.398   6.529  0.0328  0.1804 -0.3967
  464POSM   AM1 5180  13.706   0.484   5.929 -0.0009  0.0435  0.1976
  464POSM   AM2 5181  13.424   0.305   5.816 -0.1409 -0.2510  0.1555
  464POSM   T1A 5182  13.674   0.477   5.392 -0.0046  0.1835  0.1762
  464POSM   C2A 5183  13.641   0.383   4.961 -0.0706  0.1186  0.0583
  464POSM   C3A 5184  13.827   0.259   4.710  0.0485  0.0988  0.4046
  464POSM   C1B 5185  13.118   0.360   5.437 -0.4394 -0.0780 -0.1713
  464POSM   D2B 5186  12.989   0.506   5.025  0.1736  0.1629 -0.2497
  464POSM   C3B 5187  13.253   0.619   4.702  0.2996 -0.1392 -0.1010
  464POSM   C4B 5188  13.650   0.812   4.657  0.1129  0.0258 -0.1708
  465CHOL   ROH 5189   1.025  14.065   5.922  0.4114  0.0507 -0.0815
  465CHOL    R1 5190   1.040  14.005   5.645  0.2481  0.0361 -0.0878
  465CHOL    R2 5191   0.936  13.772   5.538  0.0826  0.0836 -0.0311
  465CHOL    R3 5192   0.803  13.945   5.375  0.0873  0.1432  0.0274
  465CHOL    R4 5193   0.802  13.691   5.230  0.0069  0.1708 -0.0220
  465CHOL    R5 5194   0.871  13.883   5.155  0.0330  0.1717  0.0018
  465CHOL    C1 5195   0.600  13.806   4.898 -0.0327  0.2775  0.0381
  465CHOL    C2 5196   0.631  13.614   4.677 -0.2586 -0.1833  0.0001
  466POPC   NC3 5197   1.957  14.199   6.595  0.3307 -0.1102  0.0308
  466POPC   PO4 5198   2.040  13.898   6.285  0.0604 -0.1615 -0.2086
  466POPC   GL1 5199   2.040  14.143   6.019  0.1073 -0.2416 -0.1156
  466POPC   GL2 5200   1.832  14.400   6.002 -0.0151 -0.0337 -0.2664
  466POPC   C1A 5201   2.250  14.300   5.676  0.0760 -0.0995 -0.0568
  466POPC   D2A 5202   2.365  14.679   5.522  0.1030 -0.0075 -0.0457
  466POPC   C3A 5203   2.091  14.927   5.325  0.1040  0.1540 -0.1193
  466POPC   C4A 5204   1.988  15.019   5.029 -0.1222  0.0738 -0.0049
  466POPC   C1B 5205   1.807  14.613   5.578  0.0728 -0.1206 -0.0461
  466POPC   C2B 5206   1.635  14.593   5.167 -0.1692 -0.3310  0.0759
  466POPC   C3B 5207   1.584  14.595   4.785 -0.1659 -0.2380  0.1351
  466POPC   C4B 5208   1.265  14.499   4.464 -0.0579 -0.0466  0.2747
  467POPS   CNO 5209   1.749   0.894   6.656 -0.2654 -0.5095 -0.3579
  467POPS   PO4 5210   1.691   0.531   6.416 -0.0591 -0.4101  0.3092
  467POPS   GL1 5211   1.917   0.572   6.034  0.0217 -0.3050 -0.3632
  467POPS   GL2 5212   1.708   0.414   5.909 -0.1887 -0.0800 -0.0526
  467POPS   C1A 5213   1.992   0.707   5.625 -0.0419  0.2231  0.1597
  467POPS   D2A 5214   2.044   0.697   5.143  0.0151 -0.0649  0.2224
  467POPS   C3A 5215   2.098   0.457   4.804  0.0527  0.0806 -0.0323
  467POPS   C4A 5216   1.980   0.409   4.318  0.0177 -0.2569 -0.0341
  467POPS   C1B 5217   1.606   0.426   5.494 -0.1384 -0.0547 -0.4341
  467POPS   C2B 5218   1.432   0.649   5.164  0.2540 -0.0729 -0.3249
  467POPS   C3B 5219   1.682   0.691   4.799  0.0649  0.0326 -0.0926
  467POPS   C4B 5220   1.717   0.879   4.368 -0.2442  0.1497  0.0058
  468POPC   NC3 5221  16.133  15.299   6.382  0.1864  0.0308 -0.2127
  468POPC   PO4 5222  16.252  14.933   6.384 -0.2678 -0.0176  0.0157
  468POPC   GL1 5223  16.193  14.814   6.100  0.2548 -0.0626 -0.1024
  468POPC   GL2 5224  15.834  14.778   6.032 -0.2614 -0.0493  0.1933
  468POPC   C1A 5225  16.256  14.676   5.735 -0.0703  0.2391 -0.1533
  468POPC   D2A 5226  16.148  14.628   5.292  0.0994  0.3862 -0.2458
  468POPC   C3A 5227  15.754  14.427   5.220  0.2363  0.1020  0.0459
  468POPC   C4A 5228  15.602  14.192   4.878 -0.3991  0.2325  0.1845
  468POPC   C1B 5229  15.627  14.474   5.810  0.0451 -0.0338 -0.1139
  468POPC   C2B 5230  15.506  14.043   5.723  0.2362 -0.1249 -0.0380
  468POPC   C3B 5231  15.409  13.819   6.061  0.2526 -0.2492  0.0771
  468POPC   C4B 5232  15.179  13.525   6.187  0.2573 -0.1654 -0.1676
  469POSM   NC3 5233  13.730  16.572   6.695 -0.0328  0.1534  0.2567
  469POSM   PO4 5234  13.602  16.656   6.252  0.0131 -0.2432  0.0783
  469POSM   AM1 5235  13.802  16.499   6.023 -0.2962 -0.0058 -0.1621
  469POSM   AM2 5236  13.743  16.181   6.063 -0.1520 -0.1477  0.1989
  469POSM   T1A 5237  13.713  16.542   5.631  0.0744  0.0832 -0.1252
  469POSM   C2A 5238  13.382  16.508   5.394 -0.1060  0.3074  0.0420
  469POSM   C3A 5239  12.975  16.565   5.084  0.0292 -0.0068 -0.0632
  469POSM   C1B 5240  13.688  16.068   5.680  0.1813  0.0512 -0.1151
  469POSM   D2B 5241  13.947  16.208   5.365  0.0738  0.2273  0.3670
  469POSM   C3B 5242  13.786  16.463   5.090  0.2099  0.0845  0.0748
  469POSM   C4B 5243  13.496  16.483   4.843 -0.1067  0.1187 -0.0509
  470POPE   NH3 5244  16.010   2.142   6.351 -0.2139 -0.2752  0.0935
  470POPE   PO4 5245  15.718   1.915   6.423  0.1468 -0.0479 -0.1203
  470POPE   GL1 5246  15.973   1.736   6.064  0.0932  0.1516 -0.0519
  470POPE   GL2 5247  15.761   1.793   5.934  0.0775 -0.0755  0.0632
  470POPE   C1A 5248  16.232   1.716   5.741  0.0297 -0.0413  0.2067
  470POPE   D2A 5249  16.589   1.805   5.586 -0.1543 -0.2869 -0.1814
  470POPE   C3A 5250  16.697   2.207   5.265  0.2071  0.1403  0.1539
  470POPE   C4A 5251  16.615   2.399   4.883 -0.0167  0.0630  0.1231
  470POPE   C1B 5252  15.905   1.913   5.489  0.4525  0.0384  0.0122
  470POPE   C2B 5253  16.218   1.847   5.269 -0.2715  0.0197 -0.1739
  470POPE   C3B 5254  16.530   1.877   4.931 -0.4116 -0.0096  0.0903
  470POPE   C4B 5255  16.698   1.874   4.521 -0.0933  0.4212  0.2486
  471POPS   CNO 5256   0.795   1.804   6.384 -0.1686  0.0266  0.4108
  471POPS   PO4 5257   0.316   1.885   6.459 -0.2942 -0.2087 -0.2103
  471POPS   GL1 5258   0.438   2.041   6.074 -0.3409  0.0040  0.0863
  471POPS   GL2 5259   0.619   2.438   6.112 -0.1490 -0.0163  0.4780
  471POPS   C1A 5260   0.504   2.065   5.573  0.1888  0.0104  0.0042
  471POPS   D2A 5261   0.803   2.168   5.402  0.0012 -0.0697  0.0448
  471POPS   C3A 5262   1.195   1.967   5.309  0.0469 -0.1833  0.1145
  471POPS   C4A 5263   1.375   1.608   5.093  0.1312 -0.3599 -0.0245
  471POPS   C1B 5264   0.306   2.429   5.828  0.2061  0.1203  0.2243
  471POPS   C2B 5265   0.008   2.590   5.540 -0.0235 -0.4010 -0.0064
  471POPS   C3B 5266  -0.395   2.492   5.455 -0.2468 -0.1244 -0.0061
  471POPS   C4B 5267  -0.679   2.537   5.284  0.1090  0.0575 -0.1327
  472POSM   NC3 5268   0.517  12.689   6.680  0.0835 -0.0917 -0.1430
  472POSM   PO4 5269   0.867  12.792   6.484  0.1488 -0.1247  0.0052
  472POSM   AM1 5270   0.527  12.789   6.157  0.1685  0.2272  0.0580
  472POSM   AM2 5271   0.258  12.881   6.208 -0.1524  0.2315 -0.0676
  472POSM   T1A 5272   0.402  12.839   5.668  0.0721 -0.0445 -0.0989
  472POSM   C2A 5273   0.169  13.077   5.256 -0.2057 -0.0622  0.1825
  472POSM   C3A 5274  -0.103  13.290   5.345  0.0378  0.3020 -0.0763
  472POSM   C1B 5275   0.232  13.244   5.952 -0.1493  0.1854 -0.1448
  472POSM   D2B 5276   0.398  13.562   5.663 -0.2038  0.4311 -0.1246
  472POSM   C3B 5277   0.301  13.595   5.220  0.0569 -0.1408  0.2043
  472POSM   C4B 5278   0.160  13.474   4.830 -0.0004  0.0515 -0.0630
  473POSM   NC3 5279  13.617  15.520   6.805 -0.0078 -0.1543 -0.0553
  473POSM   PO4 5280  13.774  15.509   6.353  0.1374  0.0908 -0.0048
  473POSM   AM1 5281  14.042  15.816   6.155  0.0529  0.2529 -0.2203
  473POSM   AM2 5282  14.347  15.786   6.356  0.1731 -0.2620 -0.3283
  473POSM   T1A 5283  14.178  15.986   5.760  0.0997  0.0651  0.0049
  473POSM   C2A 5284  14.408  15.998   5.325  0.0382 -0.0088 -0.1441
  473POSM   C3A 5285  14.284  15.875   4.953  0.1706  0.2429  0.1027
  473POSM   C1B 5286  14.547  15.858   6.035  0.6325  0.0583  0.1664
  473POSM   D2B 5287  14.698  15.786   5.699 -0.1474  0.1362 -0.1201
  473POSM   C3B 5288  14.887  15.786   5.172  0.0185  0.1266  0.2694
  473POSM   C4B 5289  14.795  15.576   4.769 -0.1321 -0.1055 -0.0312
  474POPE   NH3 5290   1.399   0.177   6.209  0.0516 -0.0128  0.1202
  474POPE   PO4 5291   1.158   0.539   6.216 -0.1311  0.0666  0.3453
  474POPE   GL1 5292   0.851   0.717   5.872  0.1950  0.0225 -0.1102
  474POPE   GL2 5293   0.962   1.076   5.809  0.0491  0.0150  0.0802
  474POPE   C1A 5294   1.001   0.774   5.451  0.1134  0.0702 -0.0311
  474POPE   D2A 5295   1.063   0.834   4.957  0.0114  0.2290 -0.1076
  474POPE   C3A 5296   1.382   1.097   4.929 -0.2926  0.0023 -0.3766
  474POPE   C4A 5297   1.660   1.341   4.756 -0.1687 -0.0593  0.0194
  474POPE   C1B 5298   0.684   1.105   5.452  0.0226 -0.2026  0.0455
  474POPE   C2B 5299   0.424   1.160   5.099 -0.0091 -0.0803 -0.2302
  474POPE   C3B 5300   0.471   1.411   4.698 -0.4269 -0.3820 -0.1938
  474POPE   C4B 5301   0.601   1.501   4.401  0.1316  0.5004  0.2642
  475CHOL   ROH 5302  15.911   3.100   5.832 -0.0216 -0.0042 -0.0195
  475CHOL    R1 5303  16.112   3.160   5.642  0.0279 -0.0976  0.0036
  475CHOL    R2 5304  16.091   3.090   5.376  0.0077 -0.0526 -0.0054
  475CHOL    R3 5305  16.138   3.355   5.336  0.1657 -0.0742  0.0288
  475CHOL    R4 5306  16.160   3.234   5.069 -0.0780 -0.0309 -0.0151
  475CHOL    R5 5307  16.308   3.361   5.168  0.0698 -0.1543 -0.0737
  475CHOL    C1 5308  16.244   3.567   4.854  0.0204 -0.0386  0.0114
  475CHOL    C2 5309  15.971   3.593   4.660  0.1385  0.5002  0.1282
  476POPS   CNO 5310   4.236   1.278   6.500  0.0808 -0.2299  0.1418
  476POPS   PO4 5311   4.220   1.153   6.177  0.0441 -0.1900  0.1992
  476POPS   GL1 5312   3.834   0.902   5.874 -0.1606 -0.1840  0.3714
  476POPS   GL2 5313   3.528   0.640   5.950 -0.2518  0.1347  0.0062
  476POPS   C1A 5314   3.647   0.901   5.509  0.0784  0.1724  0.0338
  476POPS   D2A 5315   3.466   0.840   5.157  0.1656  0.0785  0.1249
  476POPS   C3A 5316   3.114   1.027   4.910 -0.1167 -0.0419  0.0857
  476POPS   C4A 5317   3.294   1.055   4.450  0.1022  0.1669  0.0008
  476POPS   C1B 5318   3.220   0.674   5.636  0.0104 -0.3233 -0.0047
  476POPS   C2B 5319   2.922   0.644   5.233 -0.1987 -0.2486  0.0294
  476POPS   C3B 5320   2.775   0.690   4.781 -0.2920 -0.4779  0.2345
  476POPS   C4B 5321   2.933   0.723   4.284  0.3280 -0.3004 -0.2083
  477POSM   NC3 5322  14.597  15.857   7.034 -0.0638  0.0031 -0.0020
  477POSM   PO4 5323  14.554  16.127   6.654 -0.0074  0.1195 -0.2466
  477POSM   AM1 5324  14.660  16.251   6.282 -0.0402  0.4517  0.1122
  477POSM   AM2 5325  14.495  16.510   6.161 -0.1810 -0.1249  0.0189
  477POSM   T1A 5326  14.786  16.323   5.781  0.3341  0.1423  0.2464
  477POSM   C2A 5327  14.744  16.407   5.310  0.1820  0.2405  0.1813
  477POSM   C3A 5328  14.298  16.419   5.131  0.0064 -0.2560 -0.0945
  477POSM   C1B 5329  14.299  16.555   5.711 -0.3949  0.0651  0.0965
  477POSM   D2B 5330  14.094  16.760   5.398 -0.3769  0.0668  0.0219
  477POSM   C3B 5331  14.140  17.062   4.996  0.1555 -0.0097  0.1728
  477POSM   C4B 5332  14.100  17.250   4.515 -0.2917  0.1207  0.1556
  478CHOL   ROH 5333   1.940  16.403   5.713 -0.0792 -0.1044  0.0979
  478CHOL    R1 5334   1.884  16.364   5.438 -0.1044 -0.0295  0.0922
  478CHOL    R2 5335   1.936  16.126   5.308 -0.0469  0.0313  0.0053
  478CHOL    R3 5336   1.674  16.142   5.240 -0.0615 -0.0293  0.0457
  478CHOL    R4 5337   1.804  16.021   5.006 -0.0171  0.2783 -0.0960
  478CHOL    R5 5338   1.676  16.198   5.007 -0.1071  0.2168  0.1007
  478CHOL    C1 5339   1.480  15.976   4.767 -0.0134  0.3652 -0.1171
  478CHOL    C2 5340   1.249  15.758   4.574  0.1019 -0.2159  0.0981
  479POPS   CNO 5341   0.153  13.698   7.153 -0.0968  0.1592 -0.2524
  479POPS   PO4 5342   0.296  13.642   6.736  0.0808  0.0378  0.0312
  479POPS   GL1 5343   0.243  13.579   6.268  0.2336  0.2163 -0.3200
  479POPS   GL2 5344   0.336  13.868   6.039  0.1416 -0.3587 -0.1490
  479POPS   C1A 5345  -0.086  13.634   5.895 -0.1785 -0.0679  0.1372
  479POPS   D2A 5346  -0.361  13.730   5.471  0.0141  0.0720 -0.0319
  479POPS   C3A 5347  -0.248  13.718   5.130 -0.1642  0.0643  0.2615
  479POPS   C4A 5348  -0.269  13.683   4.665  0.2691  0.0519  0.0522
  479POPS   C1B 5349   0.543  14.139   5.779  0.0256  0.0657 -0.1442
  479POPS   C2B 5350   0.735  14.410   5.527  0.1413  0.2500 -0.1706
  479POPS   C3B 5351   0.914  14.414   5.166  0.2713  0.1491 -0.3217
  479POPS   C4B 5352   1.100  14.466   4.895  0.1027 -0.1077  0.0222
  480POPS   CNO 5353  13.993   1.746   6.580 -0.1595  0.1166  0.4434
  480POPS   PO4 5354  13.996   1.303   6.444 -0.0885 -0.0018  0.2853
  480POPS   GL1 5355  13.956   0.935   6.178 -0.1321  0.1007  0.0359
  480POPS   GL2 5356  13.851   1.143   5.934  0.3118  0.2742  0.0710
  480POPS   C1A 5357  14.199   0.658   5.842  0.0372  0.0160 -0.0805
  480POPS   D2A 5358  14.125   0.702   5.434 -0.1136  0.2359  0.2495
  480POPS   C3A 5359  13.840   0.975   5.359  0.0088 -0.3659  0.1174
  480POPS   C4A 5360  13.621   1.233   4.995  0.2514 -0.1704 -0.0269
  480POPS   C1B 5361  13.789   1.438   5.516  0.3102  0.0689  0.0735
  480POPS   C2B 5362  13.619   1.872   5.404  0.0720  0.1790  0.0842
  480POPS   C3B 5363  13.545   2.187   5.191  0.0890  0.1130 -0.0762
  480POPS   C4B 5364  13.776   2.269   4.696  0.1805 -0.0130 -0.3384
  481POSM   NC3 5365   2.009  16.122   6.353 -0.1030 -0.1946 -0.0442
  481POSM   PO4 5366   1.606  16.188   6.077 -0.0366 -0.1913 -0.2027
  481POSM   AM1 5367   1.469  15.997   5.711 -0.2685 -0.1404 -0.1130
  481POSM   AM2 5368   1.333  15.704   5.931  0.1218  0.0057  0.2467
  481POSM   T1A 5369   1.585  15.627   5.487  0.2092  0.0316 -0.1373
  481POSM   C2A 5370   1.779  15.509   5.049  0.2303 -0.1648 -0.2620
  481POSM   C3A 5371   1.623  15.256   4.750  0.2441 -0.0561  0.4512
  481POSM   C1B 5372   1.152  15.393   5.770  0.1046 -0.2900 -0.5541
  481POSM   D2B 5373   1.148  15.338   5.406 -0.1854 -0.2314  0.1228
  481POSM   C3B 5374   1.046  15.490   5.091 -0.0121  0.0911  0.0815
  481POSM   C4B 5375   0.913  15.390   4.651 -0.1394 -0.1628 -0.0842
  482POSM   NC3 5376  15.224   0.670   6.306  0.0069 -0.1584 -0.3117
  482POSM   PO4 5377  14.894   0.800   6.419 -0.0805 -0.0459  0.0131
  482POSM   AM1 5378  14.626   1.023   6.104  0.0075 -0.0497 -0.0483
  482POSM   AM2 5379  14.370   1.214   5.975  0.3160 -0.1638 -0.1441
  482POSM   T1A 5380  14.623   0.856   5.553  0.0492 -0.0513 -0.2292
  482POSM   C2A 5381  14.561   0.785   5.172  0.2635  0.2383 -0.1126
  482POSM   C3A 5382  14.595   0.645   4.755 -0.0473 -0.0861  0.1330
  482POSM   C1B 5383  14.241   1.212   5.538  0.2490 -0.0593 -0.1482
  482POSM   D2B 5384  14.587   1.283   5.257 -0.2187  0.1473 -0.0801
  482POSM   C3B 5385  14.505   1.179   4.812  0.0178  0.2569  0.1777
  482POSM   C4B 5386  14.287   1.092   4.491  0.6542  0.1556  0.1242
  483POPS   CNO 5387  15.378  14.755   6.790  0.0966  0.0322  0.0484
  483POPS   PO4 5388  15.477  14.853   6.343  0.0725 -0.1650 -0.0477
  483POPS   GL1 5389  15.285  14.798   6.005 -0.0409 -0.2289 -0.2589
  483POPS   GL2 5390  14.993  14.815   6.081  0.1706 -0.0354 -0.1459
  483POPS   C1A 5391  15.225  14.734   5.584  0.0305  0.0206 -0.2097
  483POPS   D2A 5392  15.019  14.828   5.165 -0.0897  0.2693  0.2762
  483POPS   C3A 5393  15.099  14.598   4.768  0.0755  0.0391  0.1003
  483POPS   C4A 5394  15.283  14.463   4.438  0.2075  0.1080  0.0299
  483POPS   C1B 5395  14.751  14.865   5.657  0.2893  0.0789 -0.0832
  483POPS   C2B 5396  14.553  14.951   5.236 -0.2087  0.0651 -0.1289
  483POPS   C3B 5397  14.726  15.022   4.802  0.0323 -0.1685 -0.2754
  483POPS   C4B 5398  14.694  14.868   4.402 -0.0376 -0.2369 -0.0677
  484POSM   NC3 5399   1.191  14.324   7.118 -0.0302  0.5032  0.2074
  484POSM   PO4 5400   0.987  14.177   6.696  0.1710 -0.1880  0.0702
  484POSM   AM1 5401   1.221  14.386   6.289  0.1889  0.0367 -0.2609
  484POSM   AM2 5402   1.503  14.219   6.302  0.1804  0.1933  0.3221
  484POSM   T1A 5403   0.937  14.598   5.976  0.1887  0.1848 -0.1414
  484POSM   C2A 5404   0.988  14.966   5.643 -0.0272  0.1424 -0.0094
  484POSM   C3A 5405   0.925  14.943   5.224  0.1484 -0.0732  0.0675
  484POSM   C1B 5406   1.463  14.170   5.868 -0.3979  0.2254  0.1730
  484POSM   D2B 5407   1.801  14.070   5.521 -0.0140  0.1667 -0.0900
  484POSM   C3B 5408   1.817  13.938   5.100 -0.1377 -0.1162  0.1941
  484POSM   C4B 5409   2.185  14.022   4.782 -0.3374  0.2137  0.1135
  485POPS   CNO 5410   0.357   1.395   6.549  0.0386  0.0549 -0.0549
  485POPS   PO4 5411  -0.004   1.216   6.518 -0.0794  0.1104  0.5442
  485POPS   GL1 5412   0.141   1.079   6.098  0.4039 -0.4331 -0.5044
  485POPS   GL2 5413   0.407   0.961   6.007 -0.0994  0.2960  0.0585
  485POPS   C1A 5414   0.012   1.029   5.672 -0.1094  0.1909  0.1842
  485POPS   D2A 5415  -0.262   1.262   5.474 -0.1170  0.1556 -0.1029
  485POPS   C3A 5416  -0.112   1.385   4.989  0.2681  0.0450  0.0850
  485POPS   C4A 5417  -0.050   1.318   4.632  0.0640 -0.0208 -0.2695
  485POPS   C1B 5418   0.413   0.785   5.674  0.0862  0.2550 -0.2372
  485POPS   C2B 5419   0.022   0.624   5.377  0.0390 -0.2072  0.1346
  485POPS   C3B 5420   0.008   0.875   5.094 -0.2993 -0.0991  0.2218
  485POPS   C4B 5421  -0.027   0.864   4.724 -0.0519 -0.1242  0.2559
  486POSM   NC3 5422   2.966   0.470   6.190 -0.0411  0.0234 -0.3218
  486POSM   PO4 5423   2.652   0.631   6.333  0.0844  0.0128  0.1892
  486POSM   AM1 5424   2.518   0.477   6.014  0.0299  0.1730  0.0676
  486POSM   AM2 5425   2.340   0.234   6.203 -0.2120 -0.4826  0.4852
  486POSM   T1A 5426   2.502   0.488   5.563 -0.0742  0.0781 -0.1122
  486POSM   C2A 5427   2.496   0.419   5.095 -0.0339 -0.2749  0.3105
  486POSM   C3A 5428   2.523   0.146   4.706 -0.0979 -0.3739  0.5175
  486POSM   C1B 5429   2.181   0.217   5.802 -0.0787  0.0873 -0.0393
  486POSM   D2B 5430   2.077   0.238   5.312 -0.1046  0.1588 -0.0683
  486POSM   C3B 5431   1.785   0.159   5.148  0.2441  0.1558 -0.0370
  486POSM   C4B 5432   1.591   0.202   4.712  0.0317  0.1520 -0.3490
  487POPE   NH3 5433  15.675   1.409   6.329  0.1905 -0.3273  0.2457
  487POPE   PO4 5434  15.685   0.969   6.304 -0.0744 -0.1775 -0.1492
  487POPE   GL1 5435  15.715   0.668   5.954  0.0935 -0.0634 -0.4449
  487POPE   GL2 5436  15.535   0.938   5.753  0.0243 -0.0532 -0.1387
  487POPE   C1A 5437  15.639   0.429   5.658  0.3308  0.0494 -0.1415
  487POPE   D2A 5438  15.495   0.419   5.268 -0.1493 -0.0238  0.1374
  487POPE   C3A 5439  15.763   0.641   4.947  0.1127  0.0211  0.1269
  487POPE   C4A 5440  16.163   0.513   4.702  0.0915  0.1938  0.1536
  487POPE   C1B 5441  15.580   1.041   5.310  0.1475  0.2426  0.3951
  487POPE   C2B 5442  15.535   1.095   4.913  0.0801  0.0137  0.0690
  487POPE   C3B 5443  15.685   1.344   4.551  0.0069  0.0174 -0.1007
  487POPE   C4B 5444  15.799   1.878   4.577 -0.0360 -0.1365  0.0627
  488POPS   CNO 5445  16.143  14.303   6.842 -0.3039  0.1172 -0.0527
  488POPS   PO4 5446  16.337  14.359   6.544  0.2254  0.1211  0.0191
  488POPS   GL1 5447  16.338  14.289   6.137  0.4412  0.2811 -0.3831
  488POPS   GL2 5448  15.998  14.216   6.031 -0.1769 -0.2923 -0.0411
  488POPS   C1A 5449  16.427  14.114   5.850 -0.2818 -0.4358 -0.1584
  488POPS   D2A 5450  16.701  13.930   5.600  0.0763 -0.1621  0.0703
  488POPS   C3A 5451  16.974  14.112   5.258  0.0830 -0.4541  0.4176
  488POPS   C4A 5452  17.123  14.285   4.849 -0.0629 -0.0532 -0.0443
  488POPS   C1B 5453  16.004  14.190   5.565 -0.3084  0.1679  0.2722
  488POPS   C2B 5454  15.854  13.936   5.211  0.0326 -0.1090  0.2075
  488POPS   C3B 5455  15.781  13.731   4.872  0.0567 -0.1300  0.1739
  488POPS   C4B 5456  15.893  13.324   4.656 -0.0260 -0.1764 -0.0472
  489CHOL   ROH 5457   0.543   0.232   5.790 -0.1296 -0.1207 -0.0143
  489CHOL    R1 5458   0.620   0.279   5.522 -0.1093 -0.1842 -0.0196
  489CHOL    R2 5459   0.437   0.320   5.319 -0.0878  0.0663  0.0156
  489CHOL    R3 5460   0.581   0.546   5.278  0.1889 -0.1043  0.0160
  489CHOL    R4 5461   0.424   0.511   5.032 -0.1422  0.2787  0.1561
  489CHOL    R5 5462   0.640   0.536   5.045 -0.0804 -0.0350 -0.0639
  489CHOL    C1 5463   0.552   0.835   4.825  0.0858  0.2422  0.2384
  489CHOL    C2 5464   0.810   1.022   4.555  0.5028 -0.0648 -0.0957
  490POPC   NC3 5465  15.152  16.331   6.175  0.1437  0.0380 -0.1674
  490POPC   PO4 5466  15.334  16.708   6.431  0.1628  0.0772  0.0960
  490POPC   GL1 5467  14.965  16.822   6.108 -0.0186 -0.0489  0.1012
  490POPC   GL2 5468  15.252  16.857   5.889  0.1553  0.0148  0.1987
  490POPC   C1A 5469  14.661  16.981   5.770  0.0855  0.4725 -0.1213
  490POPC   D2A 5470  14.618  16.883   5.339 -0.2963  0.0045  0.0764
  490POPC   C3A 5471  14.678  16.794   4.947 -0.1842 -0.0530  0.0957
  490POPC   C4A 5472  14.388  16.777   4.604 -0.1099  0.0176  0.2072
  490POPC   C1B 5473  15.147  16.712   5.506 -0.4402 -0.0112 -0.0199
  490POPC   C2B 5474  15.131  16.691   5.081 -0.0389  0.0091 -0.1545
  490POPC   C3B 5475  14.997  16.686   4.600  0.1028 -0.0887  0.1351
  490POPC   C4B 5476  14.909  17.026   4.330  0.0475 -0.2474 -0.0988
  491CHOL   ROH 5477   0.174  15.023   6.065 -0.0250  0.1063  0.1628
  491CHOL    R1 5478   0.019  15.077   5.835  0.0350  0.0531  0.1098
  491CHOL    R2 5479   0.128  15.177   5.602  0.0839  0.0674  0.1401
  491CHOL    R3 5480   0.008  14.960   5.490  0.1749  0.0305  0.1122
  491CHOL    R4 5481   0.057  15.142   5.265 -0.0511  0.1552  0.1587
  491CHOL    R5 5482  -0.134  15.052   5.320  0.0326  0.0059  0.2146
  491CHOL    C1 5483  -0.097  14.919   4.965 -0.0443  0.1716  0.1434
  491CHOL    C2 5484  -0.151  14.751   4.606 -0.0838  0.0535  0.0386
  492POSM   NC3 5485   0.293   0.865   6.576 -0.0957 -0.0232  0.0840
  492POSM   PO4 5486   0.748   0.939   6.362 -0.1939 -0.1330  0.0033
  492POSM   AM1 5487   0.692   1.350   6.172 -0.3582  0.0730 -0.0584
  492POSM   AM2 5488   0.320   1.532   6.047 -0.0809 -0.1439 -0.0762
  492POSM   T1A 5489   0.732   1.621   5.778 -0.1052  0.0267 -0.0260
  492POSM   C2A 5490   0.785   1.651   5.381 -0.1934  0.1258 -0.0836
  492POSM   C3A 5491   0.911   1.813   4.888 -0.2869 -0.0458 -0.0028
  492POSM   C1B 5492   0.326   1.452   5.567  0.0194  0.0351  0.0129
  492POSM   D2B 5493   0.328   1.712   5.177  0.0484 -0.3170  0.2057
  492POSM   C3B 5494   0.427   1.981   4.877  0.1462 -0.0895 -0.2034
  492POSM   C4B 5495   0.607   2.002   4.498  0.0400  0.0206  0.1271
  493POPE   NH3 5496  15.080  15.291   6.145  0.0789 -0.0531 -0.0649
  493POPE   PO4 5497  14.584  15.209   6.217 -0.2325  0.3672  0.0593
  493POPE   GL1 5498  14.512  15.300   5.809 -0.1158  0.3284  0.0032
  493POPE   GL2 5499  14.777  15.327   5.694 -0.1605  0.1164  0.1656
  493POPE   C1A 5500  14.479  15.489   5.344 -0.2704 -0.3202  0.0383
  493POPE   D2A 5501  14.343  15.381   4.909  0.1223 -0.0817 -0.0175
  493POPE   C3A 5502  14.230  14.936   4.849  0.1769 -0.2136  0.0754
  493POPE   C4A 5503  13.969  14.709   4.511  0.1256  0.3886  0.1963
  493POPE   C1B 5504  14.900  15.284   5.232  0.0279 -0.2306 -0.1804
  493POPE   C2B 5505  15.235  15.274   5.022 -0.1759  0.0028 -0.0457
  493POPE   C3B 5506  15.580  15.386   4.854 -0.1271 -0.0709  0.0358
  493POPE   C4B 5507  15.855  15.609   4.943  0.0212  0.1183  0.1376
  494POPS   CNO 5508   0.484  16.546   6.182  0.0985 -0.3146 -0.3000
  494POPS   PO4 5509   0.905  16.646   6.151 -0.0584  0.0192 -0.0584
  494POPS   GL1 5510   1.153  16.788   5.794  0.3714 -0.2750  0.1158
  494POPS   GL2 5511   1.465  16.556   5.775 -0.0528  0.3340  0.0715
  494POPS   C1A 5512   1.071  16.871   5.329  0.0982 -0.0482  0.0585
  494POPS   D2A 5513   1.099  16.909   4.855 -0.1083 -0.0524  0.1742
  494POPS   C3A 5514   0.810  17.076   4.542 -0.2513 -0.0556 -0.2525
  494POPS   C4A 5515   0.490  17.169   4.263 -0.0413 -0.1573  0.0455
  494POPS   C1B 5516   1.285  16.396   5.481  0.2396 -0.1420  0.0104
  494POPS   C2B 5517   1.279  16.485   5.084 -0.1241  0.2065 -0.3299
  494POPS   C3B 5518   1.261  16.414   4.781  0.0531 -0.1804  0.0196
  494POPS   C4B 5519   1.583  16.371   4.482 -0.0936 -0.1536  0.1586
  495CHOL   ROH 5520  15.026   0.743   5.836  0.2883  0.1470  0.0240
  495CHOL    R1 5521  15.142   0.704   5.581  0.0944  0.1094 -0.0601
  495CHOL    R2 5522  15.018   0.558   5.381 -0.0663  0.0975  0.0497
  495CHOL    R3 5523  15.056   0.785   5.236 -0.1568  0.0769 -0.0082
  495CHOL    R4 5524  15.012   0.576   5.036  0.2026 -0.0540  0.0344
  495CHOL    R5 5525  15.181   0.714   5.045  0.0725  0.1098  0.1216
  495CHOL    C1 5526  15.045   0.800   4.699  0.2741 -0.1616 -0.0289
  495CHOL    C2 5527  15.244   0.797   4.356  0.1244  0.0085  0.0029
  496CHOL   ROH 5528   0.329  16.464   5.645  0.0521 -0.2170  0.0293
  496CHOL    R1 5529   0.202  16.448   5.393  0.0355 -0.1079  0.0306
  496CHOL    R2 5530   0.058  16.657   5.285  0.0983 -0.0334  0.0949
  496CHOL    R3 5531   0.225  16.622   5.074  0.0759 -0.0289  0.0756
  496CHOL    R4 5532   0.058  16.851   4.999 -0.0610 -0.1420  0.0191
  496CHOL    R5 5533   0.090  16.670   4.882  0.0105 -0.1735  0.0826
  496CHOL    C1 5534   0.216  16.930   4.634 -0.1748 -0.2010 -0.0431
  496CHOL    C2 5535   0.016  17.107   4.377 -0.3410  0.2432 -0.1199
  497POPE   NH3 5536   0.739  16.138   6.353  0.0612 -0.1266 -0.1495
  497POPE   PO4 5537   0.772  15.803   6.563 -0.0164 -0.4534  0.1105
  497POPE   GL1 5538   0.806  15.749   6.055  0.1016  0.1313  0.1969
  497POPE   GL2 5539   0.560  15.591   6.019  0.1831 -0.1733  0.1902
  497POPE   C1A 5540   0.970  15.855   5.612 -0.0138 -0.0895  0.2474
  497POPE   D2A 5541   1.224  15.988   5.220 -0.0823 -0.0412  0.1582
  497POPE   C3A 5542   0.987  16.005   4.865 -0.0896 -0.1132 -0.1542
  497POPE   C4A 5543   0.770  16.068   4.463 -0.0349  0.0413  0.0392
  497POPE   C1B 5544   0.630  15.407   5.508  0.0715 -0.1113  0.2168
  497POPE   C2B 5545   0.456  15.329   5.050  0.0886  0.3920 -0.2224
  497POPE   C3B 5546   0.398  15.109   4.732  0.1760 -0.0417  0.4747
  497POPE   C4B 5547   0.575  14.760   4.625 -0.1485  0.1549  0.1356
  498CHOL   ROH 5548  15.664  16.568   6.015 -0.1441  0.0117  0.0515
  498CHOL    R1 5549  15.748  16.502   5.753 -0.0660  0.0096  0.0760
  498CHOL    R2 5550  15.580  16.383   5.568 -0.0376  0.0834 -0.0026
  498CHOL    R3 5551  15.654  16.595   5.414  0.0925  0.0768  0.0508
  498CHOL    R4 5552  15.514  16.415   5.230  0.0519  0.1820 -0.0108
  498CHOL    R5 5553  15.714  16.498   5.203  0.0922  0.0929  0.0463
  498CHOL    C1 5554  15.545  16.632   4.889  0.2261  0.2331  0.0345
  498CHOL    C2 5555  15.436  17.001   4.737 -0.0052  0.0390  0.5001
  499POPC   NC3 5556   0.044  15.583   6.948 -0.0919  0.4754  0.1329
  499POPC   PO4 5557  -0.212  15.676   6.558 -0.0398  0.0211 -0.2315
  499POPC   GL1 5558  -0.075  15.625   6.160 -0.2034 -0.4455  0.0344
  499POPC   GL2 5559  -0.434  15.552   5.885  0.1534  0.0193 -0.2889
  499POPC   C1A 5560   0.065  15.629   5.738  0.3144  0.0142  0.1313
  499POPC   D2A 5561   0.157  15.591   5.349 -0.0175 -0.2101  0.0439
  499POPC   C3A 5562   0.108  15.776   5.002 -0.0407 -0.0915 -0.2901
  499POPC   C4A 5563  -0.047  16.190   5.005 -0.5460 -0.0744 -0.1292
  499POPC   C1B 5564  -0.509  15.128   5.661  0.0375 -0.1543  0.0524
  499POPC   C2B 5565  -0.827  14.882   5.543  0.2633 -0.1361  0.4518
  499POPC   C3B 5566  -1.089  14.866   5.151  0.0799 -0.1614  0.2622
  499POPC   C4B 5567  -1.080  14.903   4.745 -0.1274 -0.2349 -0.0369
  500POPS   CNO 5568   0.539  15.236   6.501 -0.0569 -0.0440  0.1756
  500POPS   PO4 5569   0.632  14.750   6.366 -0.1104 -0.2945  0.3273
  500POPS   GL1 5570   0.437  14.643   5.943 -0.1044 -0.3147 -0.1423
  500POPS   GL2 5571   0.155  14.559   5.888  0.0621 -0.3584  0.0609
  500POPS   C1A 5572   0.494  14.849   5.539  0.0003 -0.1324  0.1828
  500POPS   D2A 5573   0.412  14.789   5.099  0.0701 -0.0539  0.0793
  500POPS   C3A 5574   0.091  14.465   4.985  0.1180  0.1961 -0.0613
  500POPS   C4A 5575   0.119  13.988   4.853  0.0367  0.0243 -0.0346
  500POPS   C1B 5576   0.052  14.422   5.500 -0.1314  0.0049 -0.0015
  500POPS   C2B 5577  -0.155  14.177   5.320 -0.3426  0.2125 -0.3431
  500POPS   C3B 5578  -0.341  14.222   4.909 -0.0170 -0.0981  0.0701
  500POPS   C4B 5579  -0.192  14.200   4.464  0.1081 -0.4296 -0.2547
  501POPC   NC3 5580  16.162   0.425   6.470 -0.1362  0.2713 -0.1749
  501POPC   PO4 5581  16.662   0.507   6.261  0.0419  0.1394 -0.1802
  501POPC   GL1 5582  16.568   0.543   5.946  0.0073 -0.1373  0.2527
  501POPC   GL2 5583  16.571   0.277   5.741  0.1532  0.0920 -0.1168
  501POPC   C1A 5584  16.259   0.716   5.712  0.0372 -0.0124 -0.0371
  501POPC   D2A 5585  15.964   0.852   5.532  0.3538  0.3426  0.3935
  501POPC   C3A 5586  16.069   0.979   5.165  0.3080  0.2661  0.3094
  501POPC   C4A 5587  16.079   1.073   4.773  0.0151  0.5497  0.4246
  501POPC   C1B 5588  16.141   0.323   5.515 -0.2178 -0.2141  0.1389
  501POPC   C2B 5589  16.065   0.280   5.155  0.2796  0.0518  0.1429
  501POPC   C3B 5590  16.192   0.026   4.829 -0.3227 -0.1354 -0.3914
  501POPC   C4B 5591  16.299   0.094   4.390 -0.0821 -0.1825  0.1347
  502CHOL   ROH 5592   0.760  16.394   5.767 -0.2071 -0.0810  0.1004
  502CHOL    R1 5593   0.793  16.492   5.503 -0.2765  0.1953  0.1896
  502CHOL    R2 5594   0.819  16.326   5.284  0.2945  0.4024  0.0774
  502CHOL    R3 5595   0.610  16.472   5.189 -0.0267 -0.0492  0.0590
  502CHOL    R4 5596   0.805  16.470   4.970  0.0969  0.5547  0.1550
  502CHOL    R5 5597   0.713  16.645   5.060 -0.3843  0.2844  0.2153
  502CHOL    C1 5598   0.601  16.690   4.698 -0.3198  0.2195  0.1828
  502CHOL    C2 5599   0.901  16.539   4.445  0.1777  0.1265  0.3704
  503POPE   NH3 5600  15.418  15.716   6.450  0.0049 -0.2023  0.3977
  503POPE   PO4 5601  15.608  15.363   6.143 -0.2833 -0.0534 -0.0148
  503POPE   GL1 5602  15.433  15.536   5.858 -0.1281 -0.0690 -0.1148
  503POPE   GL2 5603  15.369  15.246   5.709  0.1810  0.2208 -0.0985
  503POPE   C1A 5604  15.162  15.718   5.607  0.1930  0.0978  0.2226
  503POPE   D2A 5605  15.183  16.147   5.472  0.2154  0.1564  0.3471
  503POPE   C3A 5606  15.133  16.201   5.037 -0.2075  0.2332  0.1802
  503POPE   C4A 5607  14.689  16.335   4.825  0.3485  0.1240  0.2916
  503POPE   C1B 5608  15.633  15.308   5.368 -0.2286 -0.0639 -0.1211
  503POPE   C2B 5609  15.979  15.055   5.068  0.0316  0.2932 -0.1373
  503POPE   C3B 5610  15.932  14.715   4.859  0.0161  0.0487  0.0109
  503POPE   C4B 5611  15.830  14.558   4.473 -0.1056  0.1543  0.0027
  504POPC   NC3 5612  15.602   0.009   6.802  0.1961 -0.0287 -0.1525
  504POPC   PO4 5613  15.847   0.007   6.484 -0.2188 -0.0151  0.0485
  504POPC   GL1 5614  16.062  -0.214   6.215  0.1623  0.1924 -0.0376
  504POPC   GL2 5615  16.083  -0.416   6.071  0.0570 -0.3679  0.2214
  504POPC   C1A 5616  16.284  -0.099   5.770  0.0338 -0.2839  0.2391
  504POPC   D2A 5617  16.172  -0.200   5.342  0.0716 -0.1606  0.4818
  504POPC   C3A 5618  15.997  -0.529   5.165 -0.3872 -0.0986  0.0751
  504POPC   C4A 5619  15.653  -0.543   4.775  0.1654 -0.0340  0.0825
  504POPC   C1B 5620  15.937  -0.569   5.665 -0.0390  0.3797 -0.0030
  504POPC   C2B 5621  15.679  -0.736   5.466 -0.0099  0.1245  0.0919
  504POPC   C3B 5622  15.432  -0.835   5.196 -0.0612  0.2089  0.5397
  504POPC   C4B 5623  15.251  -0.845   4.776  0.0299  0.4540  0.2398
  505POPC   NC3 5624  16.475  16.090   6.372  0.1660  0.0894 -0.0774
  505POPC   PO4 5625  16.858  16.173   6.530  0.0415  0.2737 -0.0338
  505POPC   GL1 5626  16.905  16.121   6.009  0.0098 -0.0066  0.3023
  505POPC   GL2 5627  16.587  16.076   5.920  0.0525  0.0178  0.1224
  505POPC   C1A 5628  17.046  15.920   5.666 -0.2607 -0.2804 -0.0403
  505POPC   D2A 5629  17.199  15.832   5.229  0.0859  0.0842  0.1620
  505POPC   C3A 5630  17.040  16.139   4.846  0.4134  0.1826  0.0529
  505POPC   C4A 5631  16.815  16.320   4.521  0.2077 -0.2910 -0.3608
  505POPC   C1B 5632  16.453  16.017   5.502  0.2160 -0.0379 -0.0165
  505POPC   C2B 5633  16.222  15.618   5.421 -0.1193  0.1113  0.1232
  505POPC   C3B 5634  16.322  15.432   5.040 -0.1447 -0.0805 -0.0761
  505POPC   C4B 5635  16.565  15.365   4.587 -0.2913 -0.1492 -0.1783
  506POPE   NH3 5636   8.983   8.402   2.312  0.0172  0.2822  0.2403
  506POPE   PO4 5637   8.516   8.431   2.267 -0.1947 -0.0842 -0.0377
  506POPE   GL1 5638   8.597   8.123   2.608 -0.0747 -0.0880 -0.0564
  506POPE   GL2 5639   8.823   8.068   2.703  0.1206  0.3909 -0.0225
  506POPE   C1A 5640   8.385   7.840   2.919  0.1399  0.1907  0.0237
  506POPE   D2A 5641   8.280   7.608   3.350 -0.0371  0.2980 -0.2609
  506POPE   C3A 5642   8.464   7.724   3.669  0.2428  0.0313 -0.2008
  506POPE   C4A 5643   8.397   8.036   4.034 -0.0589  0.0032  0.1460
  506POPE   C1B 5644   8.938   8.409   3.043  0.0408 -0.2100 -0.0386
  506POPE   C2B 5645   8.875   8.491   3.474  0.0300  0.1480 -0.1457
  506POPE   C3B 5646   8.743   8.298   3.828 -0.3740 -0.1560  0.1157
  506POPE   C4B 5647   8.409   8.555   4.021 -0.2083  0.3575  0.2193
  507POPE   NH3 5648   7.442   7.722   2.513  0.2298  0.0681  0.2934
  507POPE   PO4 5649   7.813   7.723   2.239 -0.2828 -0.0645 -0.0250
  507POPE   GL1 5650   7.949   7.745   2.638  0.0364 -0.1860 -0.1258
  507POPE   GL2 5651   7.701   7.926   2.838  0.1845 -0.1098  0.0341
  507POPE   C1A 5652   7.981   7.527   2.987 -0.1435  0.0868 -0.3801
  507POPE   D2A 5653   8.215   7.189   3.171  0.2203  0.2193  0.0059
  507POPE   C3A 5654   8.575   7.176   3.125 -0.1657  0.2567 -0.1108
  507POPE   C4A 5655   8.797   6.758   3.299 -0.0281  0.1851  0.2217
  507POPE   C1B 5656   7.896   7.957   3.306 -0.0405  0.0635  0.1413
  507POPE   C2B 5657   7.821   8.143   3.743 -0.0359  0.0486 -0.3129
  507POPE   C3B 5658   7.863   8.117   4.172 -0.3877  0.0039  0.0535
  507POPE   C4B 5659   7.895   7.669   4.514  0.0369  0.0270  0.0651
  508POPC   NC3 5660   7.525   8.703   1.855  0.0742 -0.1585  0.0929
  508POPC   PO4 5661   7.853   8.992   2.009 -0.3722  0.2361 -0.1119
  508POPC   GL1 5662   7.716   8.800   2.423  0.1370  0.0752 -0.2673
  508POPC   GL2 5663   7.866   9.046   2.572 -0.0271  0.0073 -0.0708
  508POPC   C1A 5664   7.779   8.416   2.675  0.2803  0.1969 -0.0367
  508POPC   D2A 5665   8.095   8.280   2.981 -0.1534  0.0528  0.0901
  508POPC   C3A 5666   8.410   8.511   3.161 -0.4737  0.0899  0.0595
  508POPC   C4A 5667   8.400   8.706   3.525  0.1525 -0.1965  0.0362
  508POPC   C1B 5668   7.618   9.168   2.992  0.0471 -0.0571  0.0908
  508POPC   C2B 5669   7.539   9.085   3.394 -0.0958 -0.1336  0.0873
  508POPC   C3B 5670   7.584   9.106   3.813  0.1032 -0.0242 -0.0781
  508POPC   C4B 5671   7.879   9.361   3.911  0.2329  0.0875  0.1461
  509POPE   NH3 5672   8.176   7.396   2.313 -0.0010  0.1628  0.1287
  509POPE   PO4 5673   7.785   7.146   2.428  0.0187 -0.2213  0.1223
  509POPE   GL1 5674   7.681   7.104   2.835 -0.2997  0.1830  0.0449
  509POPE   GL2 5675   7.543   7.421   2.890  0.0170 -0.1200 -0.0640
  509POPE   C1A 5676   7.825   6.927   3.266  0.0886  0.1619 -0.1409
  509POPE   D2A 5677   7.921   7.209   3.586  0.4820 -0.3730  0.2910
  509POPE   C3A 5678   8.256   7.251   3.765 -0.1976 -0.3264 -0.1040
  509POPE   C4A 5679   8.454   7.103   3.602 -0.1845  0.0598  0.2899
  509POPE   C1B 5680   7.610   7.586   3.372 -0.2999  0.1920  0.2908
  509POPE   C2B 5681   7.783   7.695   3.746 -0.0683  0.3130  0.1605
  509POPE   C3B 5682   8.077   7.635   4.053  0.0068  0.3263  0.0151
  509POPE   C4B 5683   8.347   7.476   4.351  0.2015 -0.1101  0.0067
  510POPE   NH3 5684   9.285   9.601   2.536  0.3982  0.0976 -0.2393
  510POPE   PO4 5685   9.043   9.224   2.394  0.0262  0.0741 -0.0418
  510POPE   GL1 5686   9.094   9.107   2.831  0.1341 -0.3723  0.0791
  510POPE   GL2 5687   9.231   9.310   2.925 -0.0433 -0.0935 -0.0084
  510POPE   C1A 5688   9.207   8.831   3.118  0.0274 -0.0674  0.0343
  510POPE   D2A 5689   9.209   8.883   3.568 -0.0781  0.0318  0.4145
  510POPE   C3A 5690   9.237   8.570   3.850  0.1566 -0.0129 -0.0098
  510POPE   C4A 5691   9.204   8.296   4.155  0.1127 -0.1007  0.1209
  510POPE   C1B 5692   9.295   9.301   3.362  0.0532  0.1024 -0.1320
  510POPE   C2B 5693   9.344   9.297   3.775 -0.0659  0.0397 -0.1404
  510POPE   C3B 5694   9.229   9.001   4.106 -0.0322 -0.0187  0.2938
  510POPE   C4B 5695   9.178   8.900   4.536 -0.0506 -0.2001 -0.0878
  511POPC   NC3 5696   6.993   8.261   2.018 -0.0764 -0.0446  0.0976
  511POPC   PO4 5697   7.303   8.682   2.275 -0.0959 -0.1223 -0.0139
  511POPC   GL1 5698   7.381   8.723   2.755 -0.0083  0.1959 -0.0097
  511POPC   GL2 5699   7.076   8.727   2.910 -0.1334  0.1474  0.3719
  511POPC   C1A 5700   7.700   8.685   3.091  0.0343  0.1059  0.4212
  511POPC   D2A 5701   7.961   8.553   3.392 -0.1623  0.0184  0.0962
  511POPC   C3A 5702   7.938   8.605   3.811 -0.0711  0.1213  0.0120
  511POPC   C4A 5703   7.969   8.708   4.231  0.1524 -0.0857 -0.3615
  511POPC   C1B 5704   7.005   8.372   3.271  0.0413  0.0408  0.0205
  511POPC   C2B 5705   6.955   8.335   3.595 -0.1649 -0.1567 -0.0966
  511POPC   C3B 5706   7.102   8.238   4.009  0.0412  0.0540 -0.0876
  511POPC   C4B 5707   7.345   8.134   4.288  0.2023 -0.1811  0.0678
  512POPS   CNO 5708   8.672   7.558   2.236 -0.1707  0.1593 -0.0502
  512POPS   PO4 5709   8.619   7.193   2.456 -0.2165 -0.0854 -0.5408
  512POPS   GL1 5710   8.906   7.463   2.689  0.1731  0.0497  0.1302
  512POPS   GL2 5711   9.152   7.227   2.918  0.2366 -0.1343 -0.1371
  512POPS   C1A 5712   8.977   7.656   3.064 -0.0721  0.0372 -0.2321
  512POPS   D2A 5713   8.794   7.624   3.353 -0.1517 -0.1639  0.1484
  512POPS   C3A 5714   8.616   8.091   3.304 -0.0560 -0.0611 -0.1382
  512POPS   C4A 5715   8.286   8.213   3.553 -0.3143 -0.3351 -0.0899
  512POPS   C1B 5716   9.153   7.218   3.260 -0.1730  0.0390  0.1222
  512POPS   C2B 5717   8.976   7.182   3.657  0.1047 -0.4036  0.3021
  512POPS   C3B 5718   8.968   6.792   3.985  0.1332 -0.0978  0.2389
  512POPS   C4B 5719   9.272   6.670   4.336  0.1346  0.1248  0.2544
  513POPE   NH3 5720   8.576   6.702   2.434  0.1223 -0.1670  0.2048
  513POPE   PO4 5721   8.445   6.233   2.532  0.2107 -0.2413  0.2051
  513POPE   GL1 5722   8.629   6.343   2.877 -0.0284  0.0370  0.1500
  513POPE   GL2 5723   8.441   6.590   2.959  0.0271  0.2094 -0.0433
  513POPE   C1A 5724   8.659   6.284   3.344 -0.1353 -0.0329 -0.1633
  513POPE   D2A 5725   8.596   6.578   3.760  0.0751 -0.1349 -0.0303
  513POPE   C3A 5726   8.394   6.414   4.021 -0.0656 -0.2763 -0.4752
  513POPE   C4A 5727   8.174   6.058   4.085  0.1850  0.0710 -0.2638
  513POPE   C1B 5728   8.294   6.718   3.275 -0.2554 -0.1064  0.2119
  513POPE   C2B 5729   8.122   6.732   3.681  0.0206  0.1556  0.1616
  513POPE   C3B 5730   7.992   7.075   4.141 -0.1605  0.0698  0.2021
  513POPE   C4B 5731   8.143   7.136   4.610  0.0552  0.2953 -0.3058
  514CHOL   ROH 5732   8.769   8.739   2.620 -0.0323  0.1643 -0.1928
  514CHOL    R1 5733   8.628   8.855   2.836 -0.0058  0.0286 -0.1021
  514CHOL    R2 5734   8.735   8.875   3.090  0.0472 -0.0713 -0.1169
  514CHOL    R3 5735   8.674   9.138   3.061 -0.0148 -0.0733  0.0276
  514CHOL    R4 5736   8.760   9.112   3.340  0.1204 -0.1743 -0.0258
  514CHOL    R5 5737   8.573   9.199   3.269  0.0738 -0.1809  0.1007
  514CHOL    C1 5738   8.718   9.497   3.458  0.1048 -0.2361  0.1629
  514CHOL    C2 5739   8.793   9.497   3.777 -0.2474  0.0477 -0.1262
  515CHOL   ROH 5740   6.757   7.022   3.197 -0.3345 -0.0750  0.0286
  515CHOL    R1 5741   6.793   6.981   3.475 -0.1580 -0.1368 -0.0006
  515CHOL    R2 5742   7.021   6.866   3.581  0.0744  0.1761 -0.1417
  515CHOL    R3 5743   7.028   7.092   3.731 -0.2263  0.1293 -0.0524
  515CHOL    R4 5744   7.136   6.884   3.906 -0.0001  0.1916 -0.1166
  515CHOL    R5 5745   6.971   7.019   3.951 -0.1738 -0.0254 -0.0895
  515CHOL    C1 5746   7.208   7.107   4.237 -0.3257  0.1567 -0.0182
  515CHOL    C2 5747   7.513   6.948   4.226 -0.1037  0.1269  0.1273
  516POPE   NH3 5748   6.470   8.184   2.433  0.0282 -0.1694 -0.3048
  516POPE   PO4 5749   6.926   8.468   2.508  0.2854 -0.1207 -0.2453
  516POPE   GL1 5750   7.257   8.185   2.751  0.0902  0.3051 -0.1912
  516POPE   GL2 5751   7.415   8.312   2.977  0.1582 -0.0138  0.4047
  516POPE   C1A 5752   7.225   7.914   3.157  0.0140  0.3818  0.1133
  516POPE   D2A 5753   7.112   7.539   3.424 -0.0950  0.0056 -0.1026
  516POPE   C3A 5754   7.268   7.194   3.222  0.1354 -0.1344 -0.2130
  516POPE   C4A 5755   7.208   6.824   3.060 -0.0910 -0.0112 -0.0523
  516POPE   C1B 5756   7.494   8.303   3.394 -0.0401  0.0501  0.0318
  516POPE   C2B 5757   7.400   7.947   3.620  0.1486  0.1443 -0.0567
  516POPE   C3B 5758   7.219   7.667   3.923  0.1677  0.0132 -0.1785
  516POPE   C4B 5759   6.895   7.632   4.159  0.0660  0.1850 -0.0142
  517POPC   NC3 5760   7.750   9.455   2.309 -0.0560  0.2087 -0.0979
  517POPC   PO4 5761   8.214   9.372   2.374  0.0187  0.1482 -0.3382
  517POPC   GL1 5762   8.251   9.283   2.756 -0.1601  0.1191  0.0920
  517POPC   GL2 5763   8.321   9.525   2.997 -0.4169  0.1347  0.1747
  517POPC   C1A 5764   8.164   9.006   3.076  0.0748 -0.2035 -0.0115
  517POPC   D2A 5765   8.004   9.028   3.516 -0.2940  0.2796 -0.0444
  517POPC   C3A 5766   8.282   9.087   3.857  0.2956  0.1359  0.0377
  517POPC   C4A 5767   8.469   8.988   4.246 -0.1872 -0.0583 -0.1193
  517POPC   C1B 5768   8.479   9.946   3.328  0.2865 -0.2707  0.5829
  517POPC   C2B 5769   8.657   9.957   3.699  0.1683  0.1260 -0.2413
  517POPC   C3B 5770   8.918   9.916   4.074 -0.1262  0.2020 -0.1964
  517POPC   C4B 5771   9.194   9.675   4.075  0.0317  0.1046  0.0258
  518POPE   NH3 5772   6.930   6.072   2.400  0.0565  0.0104 -0.4501
  518POPE   PO4 5773   6.715   5.823   2.694  0.0378  0.3231  0.1834
  518POPE   GL1 5774   6.746   6.024   3.033 -0.1552  0.0473  0.2005
  518POPE   GL2 5775   6.948   5.863   3.197 -0.0726  0.0444 -0.0918
  518POPE   C1A 5776   6.619   6.108   3.475  0.1069  0.1288  0.3482
  518POPE   D2A 5777   6.911   6.408   3.821  0.0128  0.2059  0.1926
  518POPE   C3A 5778   6.671   6.679   4.151  0.0979  0.1556 -0.0932
  518POPE   C4A 5779   6.525   6.537   4.535  0.4067 -0.0870  0.1983
  518POPE   C1B 5780   7.181   6.037   3.521  0.0778 -0.2615 -0.3018
  518POPE   C2B 5781   7.347   6.191   3.725  0.0278  0.1306 -0.1273
  518POPE   C3B 5782   7.390   6.450   4.024 -0.0477  0.0653  0.1090
  518POPE   C4B 5783   7.554   6.475   4.400 -0.0282  0.0971 -0.0668
  519POPS   CNO 5784   9.153   7.293   2.237  0.0401  0.1046 -0.1874
  519POPS   PO4 5785   9.526   7.336   2.506  0.0808  0.1350 -0.2701
  519POPS   GL1 5786   9.744   7.296   2.876 -0.0228 -0.1562 -0.0099
  519POPS   GL2 5787   9.961   7.062   2.920  0.0447  0.0559 -0.0774
  519POPS   C1A 5788   9.645   7.108   3.313  0.1615  0.0845 -0.1829
  519POPS   D2A 5789   9.494   7.133   3.857 -0.0047 -0.0357 -0.0410
  519POPS   C3A 5790   9.695   7.038   4.319  0.0340  0.1817  0.3114
  519POPS   C4A 5791   9.514   6.878   4.710  0.2644 -0.1114  0.1604
  519POPS   C1B 5792  10.263   7.026   3.398 -0.0458 -0.2378  0.2350
  519POPS   C2B 5793  10.636   6.913   3.734  0.1425  0.2369  0.1061
  519POPS   C3B 5794  10.653   7.142   4.065 -0.1651  0.0474 -0.3038
  519POPS   C4B 5795  10.462   7.505   4.258 -0.3039 -0.0551 -0.1862
  520POSM   NC3 5796   7.699   6.328   1.885  0.0460 -0.0363 -0.2265
  520POSM   PO4 5797   7.391   6.363   2.193  0.1159 -0.1110 -0.1111
  520POSM   AM1 5798   7.668   6.285   2.496  0.0840 -0.0411 -0.0670
  520POSM   AM2 5799   7.920   6.565   2.571 -0.2114 -0.0131 -0.2052
  520POSM   T1A 5800   7.999   6.172   2.883 -0.2068  0.3217 -0.1882
  520POSM   C2A 5801   8.291   5.996   3.112 -0.0094 -0.1566  0.2015
  520POSM   C3A 5802   8.585   5.659   3.271  0.3119 -0.1841  0.1519
  520POSM   C1B 5803   7.729   6.532   2.984 -0.0429 -0.0331 -0.0679
  520POSM   D2B 5804   7.403   6.483   3.320 -0.0949 -0.2555  0.0114
  520POSM   C3B 5805   7.549   6.768   3.680  0.3250  0.1558  0.3565
  520POSM   C4B 5806   7.492   7.259   3.857 -0.0879  0.0788  0.1129
  521POPE   NH3 5807   9.271   8.754   2.472  0.0752 -0.0320  0.2799
  521POPE   PO4 5808   9.566   9.157   2.434 -0.0135  0.2197 -0.0786
  521POPE   GL1 5809   9.630   8.897   2.794  0.0238  0.0747  0.4197
  521POPE   GL2 5810   9.451   8.552   2.869 -0.1549 -0.0873  0.0723
  521POPE   C1A 5811   9.745   8.821   3.174  0.2458 -0.0321 -0.4247
  521POPE   D2A 5812   9.683   9.003   3.501 -0.2882 -0.3492  0.2760
  521POPE   C3A 5813   9.725   8.943   3.920 -0.2453 -0.2407 -0.0322
  521POPE   C4A 5814  10.142   8.926   4.134  0.2930  0.1766 -0.0506
  521POPE   C1B 5815   9.465   8.454   3.346  0.1101 -0.0519  0.2770
  521POPE   C2B 5816   9.741   8.529   3.606 -0.1374 -0.0225  0.1380
  521POPE   C3B 5817  10.006   8.385   4.006  0.2156 -0.1614 -0.2355
  521POPE   C4B 5818  10.059   8.533   4.458 -0.0185  0.1578 -0.0748
  522POPS   CNO 5819   9.101   9.635   2.071 -0.1227 -0.1029  0.1204
  522POPS   PO4 5820   8.865   9.859   2.433 -0.0455  0.1165 -0.1199
  522POPS   GL1 5821   9.181  10.042   2.812  0.1261  0.1690 -0.0913
  522POPS   GL2 5822   9.298  10.342   2.910  0.0735  0.0423 -0.1555
  522POPS   C1A 5823   9.496   9.835   3.096  0.3588 -0.0450  0.0499
  522POPS   D2A 5824   9.961   9.826   3.069  0.0239 -0.1064 -0.0301
  522POPS   C3A 5825  10.207   9.894   3.429  0.3156  0.0585  0.0410
  522POPS   C4A 5826  10.533  10.172   3.618 -0.1604 -0.0117 -0.2828
  522POPS   C1B 5827   9.268  10.211   3.336  0.0875 -0.3651 -0.1493
  522POPS   C2B 5828   9.286  10.144   3.797 -0.0950 -0.0064 -0.4231
  522POPS   C3B 5829   9.255  10.274   4.117 -0.0680  0.1524  0.4957
  522POPS   C4B 5830   9.397  10.517   4.497 -0.0936 -0.2723 -0.0574
  523POPE   NH3 5831   7.485  10.107   2.242 -0.2433 -0.2332  0.4073
  523POPE   PO4 5832   7.294   9.693   2.459  0.2989 -0.0079  0.1126
  523POPE   GL1 5833   7.189   9.548   2.873 -0.2332  0.0942  0.6467
  523POPE   GL2 5834   6.964   9.269   2.828  0.0544 -0.0953  0.2561
  523POPE   C1A 5835   7.319   9.532   3.202 -0.1033 -0.1084 -0.1918
  523POPE   D2A 5836   7.520   9.606   3.553  0.1660 -0.0720  0.1815
  523POPE   C3A 5837   7.496   9.918   3.866  0.0675  0.1260 -0.0130
  523POPE   C4A 5838   7.500  10.072   4.208  0.3930  0.1850  0.2831
  523POPE   C1B 5839   7.057   9.109   3.249  0.0447  0.0598 -0.0700
  523POPE   C2B 5840   7.189   8.769   3.507 -0.0320 -0.3199  0.0148
  523POPE   C3B 5841   7.440   8.594   3.843  0.1262  0.1302 -0.2189
  523POPE   C4B 5842   7.513   8.586   4.279  0.0993 -0.3654 -0.0323
  524POPS   CNO 5843   9.027   5.885   2.312 -0.2036  0.0801 -0.0097
  524POPS   PO4 5844   9.036   6.391   2.539 -0.3461  0.0855 -0.0921
  524POPS   GL1 5845   9.174   6.422   2.943 -0.0789  0.1370 -0.0258
  524POPS   GL2 5846   9.155   6.062   2.983 -0.1523  0.3102  0.0552
  524POPS   C1A 5847   9.264   6.499   3.314 -0.1962  0.3442  0.1216
  524POPS   D2A 5848   9.473   6.673   3.612  0.2822 -0.0596  0.2357
  524POPS   C3A 5849   9.695   6.584   3.971  0.3918  0.0567  0.0350
  524POPS   C4A 5850   9.819   6.185   4.222  0.0162 -0.0941  0.2181
  524POPS   C1B 5851   9.084   6.017   3.376  0.2538 -0.1169 -0.0195
  524POPS   C2B 5852   8.765   5.926   3.704 -0.5248 -0.2083  0.2288
  524POPS   C3B 5853   8.731   6.114   4.149  0.2779 -0.3229 -0.3614
  524POPS   C4B 5854   8.436   6.215   4.465 -0.3595  0.0100  0.1703
  525POPC   NC3 5855   8.297   9.915   2.561 -0.3170 -0.2016  0.2633
  525POPC   PO4 5856   7.961   9.896   2.154 -0.2806  0.0822  0.2474
  525POPC   GL1 5857   7.827   9.846   2.619 -0.2969  0.3968  0.1862
  525POPC   GL2 5858   7.770   9.629   2.816  0.1660  0.0665  0.0927
  525POPC   C1A 5859   7.890  10.030   3.086 -0.5180 -0.5702  0.0684
  525POPC   D2A 5860   7.827  10.015   3.485  0.1110  0.3805 -0.3226
  525POPC   C3A 5861   8.040   9.995   3.859 -0.1738  0.2308 -0.1873
  525POPC   C4A 5862   8.362   9.946   4.206  0.1093 -0.1085 -0.0184
  525POPC   C1B 5863   7.894   9.481   3.293 -0.3202 -0.0882  0.0079
  525POPC   C2B 5864   8.256   9.538   3.558  0.2351 -0.1891  0.0367
  525POPC   C3B 5865   8.363   9.497   4.071 -0.0160  0.0282  0.1885
  525POPC   C4B 5866   8.430   9.569   4.524 -0.0756  0.0434  0.2833
  526POPS   CNO 5867   6.715   7.836   2.015 -0.0377  0.0497 -0.2448
  526POPS   PO4 5868   6.988   7.918   2.362  0.0100  0.3247 -0.1723
  526POPS   GL1 5869   6.722   8.034   2.842  0.0006  0.0577 -0.0661
  526POPS   GL2 5870   6.582   8.349   2.907 -0.1075  0.0132  0.1064
  526POPS   C1A 5871   6.696   7.992   3.256  0.1603  0.0766  0.1877
  526POPS   D2A 5872   6.779   7.856   3.647 -0.1339 -0.0793  0.3166
  526POPS   C3A 5873   6.523   7.885   3.953 -0.0483  0.0026 -0.0688
  526POPS   C4A 5874   6.073   8.031   4.062  0.2399  0.0296 -0.1939
  526POPS   C1B 5875   6.318   8.370   3.297 -0.1164 -0.0081  0.0901
  526POPS   C2B 5876   6.413   8.273   3.600  0.2126 -0.1854 -0.0879
  526POPS   C3B 5877   6.561   8.362   4.013  0.3836 -0.1576 -0.1566
  526POPS   C4B 5878   6.763   8.360   4.426 -0.0276 -0.0708  0.1192
  527POPC   NC3 5879   7.692   5.401   1.939  0.1777 -0.0653  0.0842
  527POPC   PO4 5880   7.518   5.394   2.417 -0.0347 -0.0146 -0.1174
  527POPC   GL1 5881   7.701   5.204   2.697  0.2240  0.4292 -0.1203
  527POPC   GL2 5882   7.552   5.019   2.872 -0.2154  0.1367 -0.0167
  527POPC   C1A 5883   7.976   5.385   2.900  0.1642 -0.0596  0.0358
  527POPC   D2A 5884   8.155   5.430   3.294 -0.0579  0.0419 -0.3200
  527POPC   C3A 5885   8.173   5.797   3.605 -0.6623 -0.0346  0.3380
  527POPC   C4A 5886   8.241   6.221   3.586  0.1217 -0.0560  0.2668
  527POPC   C1B 5887   7.754   5.137   3.340 -0.0841 -0.3305  0.1420
  527POPC   C2B 5888   7.904   5.189   3.778  0.5186 -0.0164 -0.0371
  527POPC   C3B 5889   8.195   5.389   4.018  0.0632 -0.1461 -0.2902
  527POPC   C4B 5890   8.543   5.602   3.971  0.1046  0.1006  0.0135
  528POPC   NC3 5891   9.593   9.452   1.904 -0.3752 -0.2001  0.0560
  528POPC   PO4 5892   9.661   9.713   2.246 -0.1972  0.0422 -0.0896
  528POPC   GL1 5893   9.711   9.527   2.758  0.4465  0.2573  0.0521
  528POPC   GL2 5894   9.969   9.372   2.686 -0.0379 -0.0344  0.1929
  528POPC   C1A 5895   9.748   9.388   3.174  0.0159 -0.0744  0.3625
  528POPC   D2A 5896   9.932   9.438   3.531 -0.2730  0.0756  0.0262
  528POPC   C3A 5897  10.355   9.522   3.748 -0.0491 -0.0175 -0.1829
  528POPC   C4A 5898  10.607   9.287   3.792 -0.0287  0.0342  0.0797
  528POPC   C1B 5899  10.105   9.040   2.872  0.2570 -0.4000 -0.0234
  528POPC   C2B 5900  10.239   8.811   3.068  0.2794 -0.0953  0.0293
  528POPC   C3B 5901  10.364   8.576   3.310  0.0650 -0.1889 -0.2507
  528POPC   C4B 5902  10.665   8.346   3.411  0.0557 -0.1183  0.1018
  529POPE   NH3 5903   9.793   6.866   2.369 -0.2768  0.0264 -0.2770
  529POPE   PO4 5904   9.666   6.406   2.274 -0.1506  0.1653  0.3506
  529POPE   GL1 5905   9.580   6.525   2.677  0.0928 -0.0454 -0.1830
  529POPE   GL2 5906   9.949   6.550   2.837  0.0320  0.1879 -0.0502
  529POPE   C1A 5907   9.595   6.231   3.098 -0.4254 -0.1561  0.1350
  529POPE   D2A 5908   9.581   6.187   3.551  0.2262 -0.2839  0.0104
  529POPE   C3A 5909   9.186   6.241   3.827  0.3910 -0.1741 -0.1327
  529POPE   C4A 5910   9.180   6.154   4.277 -0.1605  0.0119 -0.2996
  529POPE   C1B 5911   9.904   6.616   3.299 -0.2077 -0.1372 -0.2251
  529POPE   C2B 5912  10.151   6.604   3.635 -0.1883 -0.0130  0.1448
  529POPE   C3B 5913  10.171   6.605   4.059 -0.1416 -0.0853 -0.1847
  529POPE   C4B 5914   9.888   6.606   4.467 -0.0724  0.0930 -0.1436
  530POPE   NH3 5915   7.197   6.904   2.121  0.0303 -0.0629  0.0190
  530POPE   PO4 5916   6.950   6.587   2.488  0.2719 -0.1125  0.1989
  530POPE   GL1 5917   7.075   6.383   2.856 -0.1246  0.0656  0.0757
  530POPE   GL2 5918   7.255   6.051   2.798  0.0846  0.0158  0.3268
  530POPE   C1A 5919   6.894   6.466   3.252 -0.0081 -0.2779 -0.1234
  530POPE   D2A 5920   6.477   6.591   3.343 -0.0437  0.1772  0.0970
  530POPE   C3A 5921   6.381   6.428   3.743 -0.0477 -0.1501 -0.4819
  530POPE   C4A 5922   6.151   6.565   4.114 -0.0583  0.1437 -0.1996
  530POPE   C1B 5923   7.534   6.044   3.077 -0.0050 -0.0082  0.2238
  530POPE   C2B 5924   7.768   6.180   3.422  0.0430  0.2675  0.0748
  530POPE   C3B 5925   7.804   6.386   3.766  0.2014  0.3142 -0.0534
  530POPE   C4B 5926   7.933   6.589   4.096  0.1470 -0.1805  0.3089
  531CHOL   ROH 5927   6.075   9.103   2.811  0.3928 -0.2132 -0.1324
  531CHOL    R1 5928   6.027   9.079   3.089  0.0616 -0.1908 -0.1851
  531CHOL    R2 5929   6.093   8.852   3.232  0.0821 -0.0986 -0.0521
  531CHOL    R3 5930   6.226   9.030   3.389 -0.2714  0.0559  0.0857
  531CHOL    R4 5931   6.210   8.785   3.550  0.2524 -0.1314 -0.1200
  531CHOL    R5 5932   6.146   8.985   3.610 -0.1649 -0.3045  0.0591
  531CHOL    C1 5933   6.404   8.912   3.883  0.0197 -0.0054 -0.0302
  531CHOL    C2 5934   6.477   8.857   4.223  0.0792 -0.1559  0.1279
  532POSM   NC3 5935   9.782  10.238   2.110  0.0550  0.3867 -0.1976
  532POSM   PO4 5936   9.652  10.469   2.469  0.3259  0.0360 -0.2022
  532POSM   AM1 5937   9.559  10.756   2.820  0.2178  0.0701  0.1293
  532POSM   AM2 5938   9.258  10.861   2.811  0.1773 -0.0778 -0.1221
  532POSM   T1A 5939   9.679  10.912   3.254 -0.0791  0.1757 -0.2785
  532POSM   C2A 5940   9.875  10.734   3.722  0.2161 -0.1807  0.0926
  532POSM   C3A 5941   9.814  10.537   4.199 -0.0769 -0.1910  0.1554
  532POSM   C1B 5942   9.247  10.706   3.248  0.4188 -0.0317 -0.0268
  532POSM   D2B 5943   9.367  10.620   3.568  0.0851 -0.1670  0.1672
  532POSM   C3B 5944   9.408  10.810   3.961  0.3274  0.0199  0.1231
  532POSM   C4B 5945   9.506  11.122   4.233  0.0410 -0.3322 -0.0709
  533POPS   CNO 5946   5.730   5.336   2.251 -0.0835  0.2122 -0.0688
  533POPS   PO4 5947   6.085   5.471   2.454  0.3671  0.0355 -0.1561
  533POPS   GL1 5948   6.253   5.554   2.843 -0.1281  0.0734  0.2808
  533POPS   GL2 5949   6.339   5.272   2.977  0.2131 -0.1820  0.0680
  533POPS   C1A 5950   6.330   5.750   3.265  0.0022 -0.2523  0.3500
  533POPS   D2A 5951   6.485   5.551   3.613  0.2483 -0.2146  0.0839
  533POPS   C3A 5952   6.725   5.747   3.892 -0.0899 -0.2315 -0.0117
  533POPS   C4A 5953   6.517   6.158   4.184  0.0798  0.1642  0.1094
  533POPS   C1B 5954   6.702   5.386   3.224  0.1585 -0.1896 -0.0352
  533POPS   C2B 5955   7.007   5.463   3.553 -0.1931 -0.0022  0.0290
  533POPS   C3B 5956   7.198   5.635   3.913 -0.1896  0.0677 -0.4606
  533POPS   C4B 5957   7.082   6.013   4.103 -0.1566  0.1164  0.0389
  534POPC   NC3 5958   9.844   8.073   2.435  0.0302 -0.2102 -0.1795
  534POPC   PO4 5959   9.447   8.258   2.382 -0.0680  0.5586 -0.0516
  534POPC   GL1 5960   9.389   7.980   2.850 -0.2498 -0.1266  0.1449
  534POPC   GL2 5961   9.579   7.781   2.729 -0.0126  0.0077 -0.2739
  534POPC   C1A 5962   9.184   8.053   3.256 -0.0816 -0.0530 -0.1740
  534POPC   D2A 5963   9.219   8.144   3.664 -0.2153 -0.0105 -0.0760
  534POPC   C3A 5964   8.955   7.798   3.764 -0.2374 -0.2823 -0.3276
  534POPC   C4A 5965   8.738   7.512   3.990  0.0509 -0.3720 -0.0890
  534POPC   C1B 5966   9.512   7.585   3.195 -0.0407 -0.2026  0.2200
  534POPC   C2B 5967   9.320   7.614   3.527 -0.0485  0.2636 -0.0398
  534POPC   C3B 5968   9.309   7.639   4.047 -0.2003 -0.1326  0.2245
  534POPC   C4B 5969   9.236   7.799   4.439  0.0018  0.1326  0.1002
  535CHOL   ROH 5970   7.146   5.526   2.837 -0.0109 -0.0206  0.0381
  535CHOL    R1 5971   7.267   5.460   3.085  0.0711 -0.0816 -0.0168
  535CHOL    R2 5972   7.529   5.522   3.143  0.0326  0.0906 -0.0095
  535CHOL    R3 5973   7.419   5.641   3.361 -0.0400 -0.1323  0.0773
  535CHOL    R4 5974   7.700   5.602   3.433 -0.0014  0.0557  0.0195
  535CHOL    R5 5975   7.526   5.536   3.548  0.0666 -0.1562  0.0009
  535CHOL    C1 5976   7.695   5.759   3.807 -0.0894 -0.1738  0.1179
  535CHOL    C2 5977   7.703   5.974   4.110 -0.1009 -0.1851 -0.1044
  536POPS   CNO 5978  10.491   7.991   1.976 -0.1322 -0.0170 -0.0230
  536POPS   PO4 5979  10.470   7.900   2.265  0.1224  0.0444  0.1548
  536POPS   GL1 5980  10.687   7.758   2.607 -0.1505 -0.1168 -0.2029
  536POPS   GL2 5981  10.569   7.479   2.623 -0.0130 -0.0256 -0.2333
  536POPS   C1A 5982  10.731   7.715   3.048 -0.0427 -0.0746  0.0427
  536POPS   D2A 5983  10.985   7.751   3.421 -0.0818 -0.0856  0.1451
  536POPS   C3A 5984  10.841   7.519   3.799 -0.0076 -0.2160  0.1521
  536POPS   C4A 5985  11.188   7.306   4.054 -0.1387 -0.2586  0.3227
  536POPS   C1B 5986  10.313   7.387   3.026 -0.0882  0.1557  0.1438
  536POPS   C2B 5987  10.000   7.484   3.320 -0.2558 -0.1143 -0.1376
  536POPS   C3B 5988   9.805   7.456   3.717  0.0840  0.1330 -0.0223
  536POPS   C4B 5989   9.915   7.530   4.116 -0.0576  0.1905 -0.1108
  537POPE   NH3 5990   6.531   6.308   2.641  0.4569  0.0857  0.1898
  537POPE   PO4 5991   6.138   6.474   2.532 -0.1829 -0.0190  0.5694
  537POPE   GL1 5992   5.963   6.295   2.862  0.0013 -0.1515  0.1974
  537POPE   GL2 5993   6.209   6.193   2.988  0.0549 -0.1673  0.3359
  537POPE   C1A 5994   5.938   6.625   3.239 -0.0381 -0.0638 -0.0296
  537POPE   D2A 5995   5.985   6.712   3.579 -0.2635 -0.1177 -0.3575
  537POPE   C3A 5996   5.683   6.757   3.903  0.2364 -0.1534 -0.1699
  537POPE   C4A 5997   5.354   6.975   4.029 -0.0123  0.1226 -0.0534
  537POPE   C1B 5998   6.007   6.117   3.390  0.3335  0.0916  0.1930
  537POPE   C2B 5999   6.078   5.893   3.666  0.0984  0.1829 -0.1132
  537POPE   C3B 6000   6.140   5.761   4.101  0.0030 -0.0648 -0.1429
  537POPE   C4B 6001   6.335   5.721   4.375  0.1074 -0.0279 -0.0355
  538CHOL   ROH 6002  10.471  11.240   2.669 -0.1186 -0.1487 -0.1276
  538CHOL    R1 6003  10.532  11.222   2.945 -0.0762 -0.0764 -0.1319
  538CHOL    R2 6004  10.448  11.011   3.102  0.0424 -0.0903 -0.0896
  538CHOL    R3 6005  10.712  10.992   3.162  0.0592  0.0426 -0.1162
  538CHOL    R4 6006  10.578  10.994   3.422  0.0774 -0.0736 -0.1024
  538CHOL    R5 6007  10.739  11.126   3.358  0.0023  0.0259 -0.0950
  538CHOL    C1 6008  10.902  10.966   3.664  0.1135  0.0609 -0.1349
  538CHOL    C2 6009  11.016  11.173   4.025  0.1489  0.2358 -0.0602
  539POPS   CNO 6010  10.101   8.911   2.409  0.4324  0.1558 -0.2473
  539POPS   PO4 6011   9.746   8.636   2.377 -0.2616 -0.2371 -0.2919
  539POPS   GL1 6012   9.957   8.537   2.693  0.0136 -0.0625  0.1950
  539POPS   GL2 6013  10.256   8.458   2.667  0.0581  0.0088 -0.5044
  539POPS   C1A 6014   9.951   8.392   3.153  0.0680 -0.0138  0.0422
  539POPS   D2A 6015  10.140   8.196   3.569 -0.1184 -0.0718  0.3271
  539POPS   C3A 6016  10.124   7.874   3.813  0.1625  0.1540  0.2149
  539POPS   C4A 6017  10.212   7.956   4.195  0.0445  0.1598 -0.2337
  539POPS   C1B 6018  10.710   8.464   2.938 -0.4246 -0.0895  0.0245
  539POPS   C2B 6019  11.142   8.319   3.239  0.0999  0.1445  0.1540
  539POPS   C3B 6020  11.235   8.174   3.647  0.0853  0.0010  0.1078
  539POPS   C4B 6021  11.125   7.898   3.877 -0.2874  0.0636 -0.0261
  540POPC   NC3 6022   7.705  10.553   2.130  0.3043  0.0393  0.2663
  540POPC   PO4 6023   8.027  10.383   1.989 -0.0529  0.0075  0.2491
  540POPC   GL1 6024   8.194  10.453   2.465 -0.0051 -0.0499 -0.0208
  540POPC   GL2 6025   7.983  10.317   2.639 -0.0590  0.1250  0.1051
  540POPC   C1A 6026   8.135  10.776   2.835  0.0951  0.2450  0.0685
  540POPC   D2A 6027   8.072  10.978   3.272  0.0756  0.1561  0.1404
  540POPC   C3A 6028   8.267  10.948   3.598  0.0637  0.0799 -0.1899
  540POPC   C4A 6029   8.586  10.873   3.883 -0.2993 -0.0069  0.0004
  540POPC   C1B 6030   8.306  10.325   3.007 -0.3061 -0.1587  0.1750
  540POPC   C2B 6031   8.358  10.499   3.398  0.0966 -0.0828 -0.3865
  540POPC   C3B 6032   8.163  10.454   3.655 -0.0672  0.1268  0.0329
  540POPC   C4B 6033   8.080  10.631   4.024 -0.4664  0.0014  0.0180
  541POPE   NH3 6034  10.151  10.428   2.438  0.1339 -0.1432  0.2478
  541POPE   PO4 6035  10.027  10.861   2.483 -0.0218  0.1449  0.0889
  541POPE   GL1 6036  10.068  10.646   2.926  0.0214  0.1496 -0.0869
  541POPE   GL2 6037   9.892  10.322   2.948  0.0179 -0.1801  0.0707
  541POPE   C1A 6038  10.159  10.590   3.378 -0.1346 -0.1193 -0.0707
  541POPE   D2A 6039  10.353  10.719   3.737 -0.1552  0.1220 -0.0553
  541POPE   C3A 6040  10.204  10.384   3.946 -0.0028  0.0580  0.1137
  541POPE   C4A 6041  10.154   9.991   3.977 -0.0958 -0.2287  0.0244
  541POPE   C1B 6042   9.829  10.207   3.411  0.0474  0.1653 -0.3280
  541POPE   C2B 6043   9.728  10.251   3.782  0.0188  0.0492  0.0067
  541POPE   C3B 6044   9.658   9.959   4.193 -0.0129 -0.0723  0.1940
  541POPE   C4B 6045   9.705   9.752   4.540 -0.2743  0.1025  0.4210
  542POSM   NC3 6046   9.547   5.898   2.099  0.3091 -0.6053 -0.0980
  542POSM   PO4 6047   9.996   5.622   1.970  0.1288 -0.2122 -0.2419
  542POSM   AM1 6048   9.859   5.690   2.429 -0.0013 -0.1630 -0.3930
  542POSM   AM2 6049  10.196   5.693   2.529  0.1071  0.1580 -0.1432
  542POSM   T1A 6050   9.707   5.759   2.899  0.0634 -0.0441 -0.0508
  542POSM   C2A 6051   9.580   5.739   3.304  0.1075 -0.0604  0.2902
  542POSM   C3A 6052   9.410   5.775   3.766  0.0925 -0.1531  0.0051
  542POSM   C1B 6053  10.252   5.824   3.055  0.1706  0.1187 -0.0068
  542POSM   D2B 6054  10.035   6.000   3.445  0.1109  0.0219  0.0287
  542POSM   C3B 6055  10.213   6.081   3.845  0.0098 -0.4628 -0.0274
  542POSM   C4B 6056  10.488   5.998   4.161 -0.1517 -0.0418 -0.0551
  543POPS   CNO 6057   8.504   5.792   2.271  0.1948  0.1058  0.1507
  543POPS   PO4 6058   8.816   5.435   2.144 -0.1095 -0.1501 -0.1243
  543POPS   GL1 6059   8.985   5.419   2.540 -0.0168 -0.1599  0.2035
  543POPS   GL2 6060   9.363   5.531   2.551  0.0859  0.0312  0.0911
  543POPS   C1A 6061   9.162   5.589   2.991  0.0446  0.0984 -0.1236
  543POPS   D2A 6062   9.192   5.460   3.379  0.2250 -0.0880 -0.2250
  543POPS   C3A 6063   9.438   5.282   3.790 -0.0134 -0.2009  0.0846
  543POPS   C4A 6064   9.503   4.826   3.990  0.0819  0.1719 -0.3305
  543POPS   C1B 6065   9.499   5.237   2.875 -0.0243 -0.2486  0.0226
  543POPS   C2B 6066   9.623   5.235   3.277 -0.0164 -0.1552 -0.0045
  543POPS   C3B 6067   9.851   5.482   3.673 -0.1698  0.4527  0.0451
  543POPS   C4B 6068   9.847   5.783   3.907 -0.0101 -0.0857 -0.0961
  544CHOL   ROH 6069   6.202   7.897   2.780  0.3464  0.0656  0.0481
  544CHOL    R1 6070   6.266   7.885   3.055  0.1157  0.0661  0.1037
  544CHOL    R2 6071   6.078   7.924   3.254 -0.0831 -0.0855 -0.0516
  544CHOL    R3 6072   6.168   7.683   3.341 -0.0027 -0.0411 -0.0111
  544CHOL    R4 6073   6.068   7.817   3.582 -0.0991 -0.0550 -0.0421
  544CHOL    R5 6074   6.266   7.730   3.555 -0.0590  0.0205  0.0016
  544CHOL    C1 6075   6.146   7.528   3.855 -0.0330  0.0044  0.0014
  544CHOL    C2 6076   6.215   7.506   4.176  0.1967 -0.0167 -0.1221
  545POPE   NH3 6077   5.560   7.844   2.597  0.1069 -0.2481  0.1593
  545POPE   PO4 6078   5.732   8.249   2.591  0.3847 -0.0233 -0.1056
  545POPE   GL1 6079   5.676   8.135   3.017 -0.1173 -0.2127 -0.1419
  545POPE   GL2 6080   5.391   8.232   3.020  0.1068  0.0539 -0.1097
  545POPE   C1A 6081   5.851   8.445   3.411  0.3817  0.0978 -0.2858
  545POPE   D2A 6082   5.918   8.387   3.736  0.0374  0.2448  0.0219
  545POPE   C3A 6083   5.669   8.358   4.090  0.2012 -0.2278  0.1722
  545POPE   C4A 6084   5.365   8.203   4.343 -0.1195 -0.1268 -0.0083
  545POPE   C1B 6085   5.379   8.307   3.447  0.0123  0.0130  0.1051
  545POPE   C2B 6086   5.236   8.295   3.845 -0.1685 -0.0553  0.3050
  545POPE   C3B 6087   4.896   8.274   4.145 -0.1736 -0.0096  0.1461
  545POPE   C4B 6088   4.842   8.457   4.510 -0.2756  0.0543  0.1282
  546POPE   NH3 6089   6.935   8.988   2.420  0.0145  0.1334  0.0018
  546POPE   PO4 6090   6.522   8.749   2.558  0.1445 -0.0650 -0.1451
  546POPE   GL1 6091   6.619   8.964   2.935 -0.1891  0.2551 -0.0856
  546POPE   GL2 6092   6.545   9.278   3.183  0.2410 -0.0749 -0.2605
  546POPE   C1A 6093   6.667   8.758   3.402  0.2736 -0.0342  0.0253
  546POPE   D2A 6094   6.945   8.782   3.930 -0.2782  0.2001  0.3666
  546POPE   C3A 6095   7.165   9.066   4.127 -0.2178  0.0668 -0.4545
  546POPE   C4A 6096   7.381   9.544   4.121  0.0175  0.0963 -0.1712
  546POPE   C1B 6097   6.641   9.263   3.647  0.3447  0.1086 -0.1702
  546POPE   C2B 6098   6.742   9.335   4.116 -0.0293  0.0081  0.1314
  546POPE   C3B 6099   6.394   9.379   4.276  0.1466  0.4073  0.1659
  546POPE   C4B 6100   6.021   9.214   4.453  0.3864  0.0161  0.0579
  547POPE   NH3 6101   8.486   9.968   2.121  0.1395  0.2844 -0.1911
  547POPE   PO4 6102   8.595  10.329   2.289 -0.3632 -0.3021  0.2245
  547POPE   GL1 6103   8.684  10.253   2.727  0.1746  0.0366  0.0240
  547POPE   GL2 6104   8.675   9.923   2.893  0.0080  0.0899 -0.1101
  547POPE   C1A 6105   8.819  10.335   3.160  0.0470  0.3584 -0.1541
  547POPE   D2A 6106   8.898  10.504   3.611 -0.2632  0.2622  0.0080
  547POPE   C3A 6107   8.816  10.374   3.946 -0.1681 -0.1988 -0.0618
  547POPE   C4A 6108   8.466  10.428   4.266 -0.1714  0.2735  0.0353
  547POPE   C1B 6109   8.991   9.769   3.161 -0.1266  0.0351  0.2406
  547POPE   C2B 6110   9.153   9.781   3.540 -0.1360  0.2919 -0.1722
  547POPE   C3B 6111   9.566   9.750   3.700  0.0091  0.1013 -0.0241
  547POPE   C4B 6112   9.760   9.494   3.970 -0.2205 -0.3547 -0.1034
  548POSM   NC3 6113  10.990   6.830   2.388  0.1147 -0.2060  0.2913
  548POSM   PO4 6114  10.733   6.485   2.224 -0.0475  0.0536  0.0125
  548POSM   AM1 6115  10.824   6.277   2.702 -0.0210  0.1753  0.0294
  548POSM   AM2 6116  10.483   6.386   2.767 -0.1350  0.2167  0.0270
  548POSM   T1A 6117  10.814   6.444   3.183  0.2549 -0.2405  0.3129
  548POSM   C2A 6118  10.995   6.554   3.629  0.2753 -0.3226  0.0299
  548POSM   C3A 6119  11.275   6.990   3.657  0.0168 -0.1208 -0.1953
  548POSM   C1B 6120  10.331   6.290   3.138 -0.2532  0.1078  0.0579
  548POSM   D2B 6121  10.524   6.142   3.488  0.0749  0.0197  0.1124
  548POSM   C3B 6122  10.589   6.385   3.782  0.2975 -0.1118  0.1125
  548POSM   C4B 6123  10.613   6.518   4.245 -0.5375 -0.3037 -0.2085
  549POPS   CNO 6124   7.223   4.288   2.031  0.1712  0.1934 -0.2421
  549POPS   PO4 6125   7.337   4.200   2.519  0.1062 -0.4186 -0.4755
  549POPS   GL1 6126   7.607   4.454   2.874 -0.1291 -0.4235  0.0967
  549POPS   GL2 6127   7.903   4.609   2.797  0.0650  0.1199 -0.3344
  549POPS   C1A 6128   7.591   4.643   3.233 -0.0985  0.2247 -0.0167
  549POPS   D2A 6129   7.847   4.690   3.639  0.1673 -0.0723  0.2173
  549POPS   C3A 6130   8.172   4.616   3.929 -0.1881  0.0666 -0.0010
  549POPS   C4A 6131   8.502   4.948   4.049  0.0529  0.3976  0.1694
  549POPS   C1B 6132   8.034   4.847   3.094 -0.0075 -0.1178 -0.0790
  549POPS   C2B 6133   8.281   4.895   3.396 -0.1806 -0.2103 -0.1608
  549POPS   C3B 6134   8.505   5.233   3.636 -0.0502 -0.4177  0.0212
  549POPS   C4B 6135   8.908   5.245   3.837  0.1422 -0.2350  0.2150
  550POPS   CNO 6136  10.156   9.804   2.336  0.0188 -0.0983 -0.1096
  550POPS   PO4 6137  10.238  10.026   2.727 -0.1309 -0.0134 -0.1772
  550POPS   GL1 6138  10.547   9.867   3.046 -0.1679 -0.3999  0.0624
  550POPS   GL2 6139  10.896   9.905   2.986 -0.0816 -0.0821  0.0996
  550POPS   C1A 6140  10.729   9.614   3.386  0.2241  0.1070  0.0079
  550POPS   D2A 6141  10.800   9.729   3.802 -0.0545 -0.1019  0.1025
  550POPS   C3A 6142  10.810   9.460   4.247 -0.3056  0.0685  0.1700
  550POPS   C4A 6143  10.629   9.680   4.595  0.0488  0.2187 -0.0013
  550POPS   C1B 6144  11.212   9.731   3.238  0.3127 -0.1441  0.0421
  550POPS   C2B 6145  11.224   9.469   3.589  0.2561 -0.3092  0.1816
  550POPS   C3B 6146  11.203   9.253   3.976  0.1215  0.0332 -0.1597
  550POPS   C4B 6147  10.941   8.902   4.219  0.0390 -0.0899 -0.0502
  551POPS   CNO 6148   6.401   7.191   2.088  0.1584 -0.1830  0.3251
  551POPS   PO4 6149   6.271   7.180   2.489 -0.1848 -0.1086  0.1398
  551POPS   GL1 6150   6.246   7.334   2.884  0.2149  0.0489  0.2013
  551POPS   GL2 6151   6.508   7.480   2.912  0.0594  0.0319  0.1190
  551POPS   C1A 6152   6.264   7.144   3.312  0.0950  0.0722  0.1882
  551POPS   D2A 6153   6.402   6.941   3.753  0.2148  0.2455  0.1633
  551POPS   C3A 6154   6.199   7.052   4.015  0.5175 -0.0864 -0.2783
  551POPS   C4A 6155   6.230   7.068   4.440 -0.1703 -0.1824 -0.0274
  551POPS   C1B 6156   6.609   7.492   3.269  0.0805  0.3176  0.0686
  551POPS   C2B 6157   6.619   7.379   3.717  0.1929 -0.1679 -0.1235
  551POPS   C3B 6158   6.599   7.224   4.148  0.0622 -0.1267  0.0700
  551POPS   C4B 6159   6.740   7.055   4.422  0.1709 -0.0660  0.0439
  552POSM   NC3 6160   5.255   9.081   2.205 -0.0123  0.2750  0.0794
  552POSM   PO4 6161   5.689   9.160   2.072 -0.0343 -0.3006  0.1582
  552POSM   AM1 6162   5.677   9.134   2.475  0.0656 -0.0290  0.0811
  552POSM   AM2 6163   5.694   8.816   2.560 -0.1951 -0.0424  0.0007
  552POSM   T1A 6164   5.585   9.210   2.962  0.1549  0.0710  0.5445
  552POSM   C2A 6165   5.572   9.498   3.242 -0.1799  0.0548  0.1315
  552POSM   C3A 6166   5.834   9.780   3.480 -0.2202 -0.2592 -0.1915
  552POSM   C1B 6167   5.617   8.726   3.028 -0.1576 -0.0682 -0.2180
  552POSM   D2B 6168   5.620   8.876   3.328 -0.1071 -0.2011 -0.2845
  552POSM   C3B 6169   5.695   9.208   3.608 -0.2266  0.0581  0.4292
  552POSM   C4B 6170   5.874   9.293   3.924 -0.0459 -0.0608 -0.0353
  553POPS   CNO 6171   5.624   6.065   2.543 -0.1546 -0.5053  0.1846
  553POPS   PO4 6172   5.308   6.197   2.202 -0.2146 -0.1973 -0.1486
  553POPS   GL1 6173   5.183   6.054   2.704 -0.3288 -0.2759 -0.1483
  553POPS   GL2 6174   5.175   5.758   2.819 -0.1118  0.0800 -0.1248
  553POPS   C1A 6175   5.113   6.017   3.195 -0.0614  0.0140 -0.1795
  553POPS   D2A 6176   4.946   5.775   3.544 -0.0024  0.0567  0.1393
  553POPS   C3A 6177   5.056   5.930   3.825  0.0252 -0.1723  0.0012
  553POPS   C4A 6178   5.296   6.202   3.981 -0.1589  0.0465 -0.0914
  553POPS   C1B 6179   5.243   5.534   3.168 -0.2997 -0.1980  0.1939
  553POPS   C2B 6180   5.350   5.344   3.623 -0.3274  0.0431 -0.3784
  553POPS   C3B 6181   5.350   5.145   4.031 -0.0434  0.0842 -0.1538
  553POPS   C4B 6182   5.141   4.941   4.412 -0.1240 -0.0693 -0.2366
  554POPS   CNO 6183   6.207   5.015   2.294  0.2638 -0.1506  0.2657
  554POPS   PO4 6184   6.536   4.822   2.403  0.0913  0.0800  0.0921
  554POPS   GL1 6185   6.496   4.804   2.825 -0.1346 -0.1019  0.1164
  554POPS   GL2 6186   6.244   4.721   3.025  0.0700  0.1703  0.3152
  554POPS   C1A 6187   6.628   4.885   3.276 -0.0975 -0.0414 -0.2030
  554POPS   D2A 6188   6.664   5.079   3.637 -0.1013 -0.2562  0.1924
  554POPS   C3A 6189   7.025   5.048   3.860 -0.2226  0.0661  0.1209
  554POPS   C4A 6190   7.409   5.229   3.960  0.0929 -0.0516  0.0426
  554POPS   C1B 6191   6.141   4.774   3.441 -0.2112  0.3255  0.0281
  554POPS   C2B 6192   6.334   4.729   3.844  0.0665  0.1729  0.0908
  554POPS   C3B 6193   6.599   4.891   4.154 -0.0510  0.1023 -0.0950
  554POPS   C4B 6194   6.566   5.172   4.515  0.0605  0.1401 -0.0204
  555POSM   NC3 6195  10.658   8.796   2.155  0.0658  0.1911 -0.2595
  555POSM   PO4 6196  10.462   9.256   2.278  0.2023 -0.0376 -0.1170
  555POSM   AM1 6197  10.555   9.034   2.629 -0.0707 -0.3597 -0.0448
  555POSM   AM2 6198  10.543   9.439   2.859 -0.1140  0.0439  0.2429
  555POSM   T1A 6199  10.923   8.811   2.664  0.0382  0.0042 -0.1122
  555POSM   C2A 6200  11.285   8.900   2.909 -0.3095  0.1309 -0.0798
  555POSM   C3A 6201  11.485   8.813   3.284 -0.1170 -0.3767  0.0244
  555POSM   C1B 6202  10.459   9.239   3.223  0.1405  0.1439 -0.3852
  555POSM   D2B 6203  10.246   8.997   3.562 -0.1873  0.0980 -0.2620
  555POSM   C3B 6204  10.562   8.730   3.785  0.1700 -0.3018 -0.2890
  555POSM   C4B 6205  10.504   8.609   4.148  0.1247  0.0859 -0.1560
  556POPE   NH3 6206  11.027   7.972   2.276 -0.1911  0.1101  0.1515
  556POPE   PO4 6207  11.358   8.027   2.402  0.2236 -0.0153 -0.3631
  556POPE   GL1 6208  11.301   7.723   2.641 -0.0235 -0.0347  0.4119
  556POPE   GL2 6209  11.584   7.531   2.687 -0.0576  0.3688 -0.0996
  556POPE   C1A 6210  11.245   7.544   3.053  0.0875 -0.1849 -0.0738
  556POPE   D2A 6211  11.261   7.281   3.300  0.1235 -0.0453 -0.0923
  556POPE   C3A 6212  11.388   6.864   3.165 -0.0874 -0.1581 -0.1812
  556POPE   C4A 6213  11.400   6.509   3.354  0.2627  0.0661  0.3394
  556POPE   C1B 6214  11.739   7.355   3.055  0.2899 -0.1321  0.1886
  556POPE   C2B 6215  11.699   7.344   3.529 -0.0380  0.0848  0.0314
  556POPE   C3B 6216  11.726   7.223   3.944  0.1841 -0.1089 -0.2359
  556POPE   C4B 6217  11.886   7.296   4.322 -0.1607  0.3772  0.0163
  557POPE   NH3 6218   9.053  10.486   2.471  0.4266  0.1977  0.1231
  557POPE   PO4 6219   9.246  10.794   2.299  0.1264  0.1132 -0.2983
  557POPE   GL1 6220   8.878  10.995   2.405 -0.1228  0.0543 -0.1681
  557POPE   GL2 6221   8.650  10.778   2.598  0.2029 -0.2260  0.1780
  557POPE   C1A 6222   8.975  11.296   2.801  0.1226  0.0516  0.0483
  557POPE   D2A 6223   9.152  11.273   3.245 -0.2489 -0.0034 -0.1640
  557POPE   C3A 6224   9.563  11.380   3.376  0.0499 -0.0930 -0.2004
  557POPE   C4A 6225   9.748  11.331   3.824  0.1482 -0.3212 -0.1974
  557POPE   C1B 6226   8.748  10.776   2.985 -0.0956 -0.0696  0.1602
  557POPE   C2B 6227   8.719  10.872   3.374 -0.2795  0.1519 -0.1608
  557POPE   C3B 6228   8.973  11.024   3.669  0.0007  0.3591 -0.0207
  557POPE   C4B 6229   9.257  11.305   3.769  0.1864 -0.0938 -0.0738
  558POPE   NH3 6230  10.788  12.188   2.442 -0.0602  0.1096  0.2305
  558POPE   PO4 6231  10.420  11.948   2.248 -0.0564 -0.2140 -0.1114
  558POPE   GL1 6232  10.331  11.913   2.593  0.1023  0.1802 -0.1808
  558POPE   GL2 6233  10.271  12.207   2.717 -0.0045  0.2955 -0.1534
  558POPE   C1A 6234  10.294  11.643   2.921  0.1314 -0.2284  0.2626
  558POPE   D2A 6235  10.341  11.541   3.326  0.1333  0.0270 -0.0012
  558POPE   C3A 6236  10.150  11.620   3.705 -0.0245  0.0847  0.0258
  558POPE   C4A 6237  10.354  11.786   4.126  0.2805  0.2157  0.0062
  558POPE   C1B 6238  10.208  12.121   3.145  0.1811 -0.5010 -0.1911
  558POPE   C2B 6239  10.083  12.130   3.547  0.1525 -0.1174  0.1638
  558POPE   C3B 6240   9.886  11.996   4.006  0.0745  0.0031  0.0582
  558POPE   C4B 6241   9.851  11.718   4.213  0.1928 -0.0071  0.6039
  559POSM   NC3 6242  10.189  11.556   2.258 -0.0993  0.1876  0.1464
  559POSM   PO4 6243   9.772  11.440   2.037  0.2097 -0.0667  0.2535
  559POSM   AM1 6244   9.661  11.417   2.424 -0.2950 -0.4330 -0.0169
  559POSM   AM2 6245   9.308  11.250   2.486 -0.0873 -0.0246  0.1971
  559POSM   T1A 6246   9.983  11.357   2.666  0.0837  0.1091 -0.0976
  559POSM   C2A 6247   9.999  11.214   3.059 -0.2343  0.1129  0.1338
  559POSM   C3A 6248  10.112  11.147   3.536 -0.0972  0.4732 -0.1184
  559POSM   C1B 6249   9.295  11.669   2.663 -0.0302  0.2937  0.0916
  559POSM   D2B 6250   9.333  11.862   3.021  0.3210 -0.2432 -0.0355
  559POSM   C3B 6251   9.194  11.745   3.398 -0.0494 -0.1707  0.2082
  559POSM   C4B 6252   8.920  11.722   3.679  0.0504  0.2305  0.0501
  560POPS   CNO 6253   7.373   4.732   2.448  0.2256 -0.0954 -0.0689
  560POPS   PO4 6254   7.101   5.092   2.517 -0.2714  0.1373  0.0125
  560POPS   GL1 6255   6.974   5.039   2.902 -0.0390 -0.1340  0.1604
  560POPS   GL2 6256   7.154   4.754   2.982 -0.3462  0.0544  0.1057
  560POPS   C1A 6257   7.218   5.060   3.350 -0.1427 -0.0938 -0.0123
  560POPS   D2A 6258   7.345   4.817   3.656  0.0344  0.4390 -0.1668
  560POPS   C3A 6259   7.497   4.627   3.997  0.0996  0.0278  0.1588
  560POPS   C4A 6260   7.799   4.546   4.262  0.1365 -0.2361 -0.0926
  560POPS   C1B 6261   6.921   4.501   3.313 -0.0759  0.1125  0.0429
  560POPS   C2B 6262   6.846   4.523   3.764 -0.0040 -0.1577 -0.5897
  560POPS   C3B 6263   6.597   4.366   4.151  0.2838  0.1036  0.3115
  560POPS   C4B 6264   6.266   4.068   4.277  0.0782 -0.0537 -0.0528
  561POPS   CNO 6265   8.383   4.576   1.555 -0.0048  0.1736 -0.2400
  561POPS   PO4 6266   8.666   4.300   1.839  0.3317  0.0583  0.1039
  561POPS   GL1 6267   8.631   4.532   2.174  0.0852 -0.2037 -0.2824
  561POPS   GL2 6268   8.966   4.704   2.325 -0.1651  0.0995 -0.2526
  561POPS   C1A 6269   8.522   4.585   2.575  0.0680 -0.2435  0.0275
  561POPS   D2A 6270   8.524   4.598   2.980 -0.0727  0.4045 -0.2163
  561POPS   C3A 6271   8.957   4.539   3.226  0.0641  0.0672  0.0490
  561POPS   C4A 6272   9.151   4.366   3.678 -0.3421  0.1144 -0.2269
  561POPS   C1B 6273   9.047   4.395   2.754  0.4823  0.0553  0.1570
  561POPS   C2B 6274   9.329   4.256   3.061 -0.1211 -0.2170 -0.1708
  561POPS   C3B 6275   9.494   4.117   3.491  0.0215  0.1930 -0.0057
  561POPS   C4B 6276   9.473   4.059   3.909  0.1524  0.1042  0.1825
  562POPS   CNO 6277   5.943   6.874   2.816  0.0280 -0.1541 -0.0953
  562POPS   PO4 6278   5.655   6.614   2.581  0.1963 -0.1500 -0.2451
  562POPS   GL1 6279   5.522   6.434   2.906  0.0395 -0.0740 -0.2456
  562POPS   GL2 6280   5.241   6.526   3.069  0.4259  0.0996  0.0595
  562POPS   C1A 6281   5.625   6.018   3.061 -0.2037 -0.1718 -0.0995
  562POPS   D2A 6282   5.554   5.843   3.455  0.1101  0.0292  0.3118
  562POPS   C3A 6283   5.658   5.706   3.807 -0.1757 -0.0753 -0.0930
  562POPS   C4A 6284   5.769   5.419   4.008 -0.1407  0.2886  0.3137
  562POPS   C1B 6285   5.477   6.347   3.423  0.0729  0.0141  0.2472
  562POPS   C2B 6286   5.761   6.258   3.827 -0.2289 -0.1303  0.4526
  562POPS   C3B 6287   5.784   6.102   4.292  0.0583  0.1968  0.1116
  562POPS   C4B 6288   5.934   5.882   4.708 -0.1953 -0.1334 -0.1169
  563POPS   CNO 6289   7.416  10.869   1.685  0.2164  0.0265 -0.4012
  563POPS   PO4 6290   7.264  10.541   1.959  0.2356  0.0415  0.1936
  563POPS   GL1 6291   7.262  10.537   2.388  0.2355  0.1973 -0.0275
  563POPS   GL2 6292   7.505  10.732   2.607  0.3324 -0.1074  0.2764
  563POPS   C1A 6293   7.010  10.502   2.723  0.1830  0.1471  0.0981
  563POPS   D2A 6294   7.067  10.499   3.159  0.0748  0.1918 -0.2246
  563POPS   C3A 6295   7.434  10.566   3.329 -0.1400  0.2080  0.1472
  563POPS   C4A 6296   7.813  10.572   3.180  0.1833 -0.1429 -0.0105
  563POPS   C1B 6297   7.466  10.308   2.897 -0.1531  0.2382  0.1369
  563POPS   C2B 6298   7.288  10.054   3.294 -0.1450 -0.1270 -0.3108
  563POPS   C3B 6299   7.197  10.285   3.671 -0.0493  0.0994  0.1569
  563POPS   C4B 6300   7.097  10.440   4.116  0.1705 -0.2193  0.1962
  564POPE   NH3 6301  10.680   9.653   2.427  0.2320 -0.0573 -0.0001
  564POPE   PO4 6302  10.951   9.970   2.495 -0.0169 -0.1813  0.2751
  564POPE   GL1 6303  11.276  10.166   2.732 -0.2408  0.1032 -0.1307
  564POPE   GL2 6304  11.462   9.858   2.777  0.1037 -0.0556 -0.2644
  564POPE   C1A 6305  11.254  10.184   3.134 -0.1350  0.0372  0.0738
  564POPE   D2A 6306  11.304  10.333   3.566 -0.1993  0.0478  0.0117
  564POPE   C3A 6307  11.616  10.366   3.922  0.0535  0.0577  0.3080
  564POPE   C4A 6308  11.744  10.156   4.192 -0.2069 -0.2345  0.1889
  564POPE   C1B 6309  11.497   9.420   2.955 -0.1069 -0.4135  0.2151
  564POPE   C2B 6310  11.615   9.361   3.365  0.1830 -0.0258  0.1397
  564POPE   C3B 6311  11.764   9.019   3.632  0.1015 -0.1211  0.1279
  564POPE   C4B 6312  11.731   8.959   3.988 -0.2598 -0.0985  0.4074
  565POPE   NH3 6313   7.896  11.347   1.572 -0.1875  0.2274  0.3564
  565POPE   PO4 6314   7.694  11.241   2.022 -0.0258  0.2503 -0.1199
  565POPE   GL1 6315   7.517  11.270   2.520  0.2737  0.2100  0.0824
  565POPE   GL2 6316   7.228  11.194   2.666  0.1143  0.0847 -0.3887
  565POPE   C1A 6317   7.690  11.123   2.876 -0.1687  0.1406 -0.0529
  565POPE   D2A 6318   7.613  11.054   3.320 -0.1126 -0.0360  0.0274
  565POPE   C3A 6319   7.724  10.783   3.701 -0.1310  0.0952  0.1570
  565POPE   C4A 6320   7.665  10.412   3.781 -0.0274  0.1183  0.0161
  565POPE   C1B 6321   7.184  10.951   2.977 -0.1934  0.0610 -0.1106
  565POPE   C2B 6322   7.060  10.908   3.450  0.1506 -0.2360 -0.2191
  565POPE   C3B 6323   7.208  10.943   3.716  0.0981  0.1079 -0.0484
  565POPE   C4B 6324   7.254  10.891   4.165 -0.2235 -0.2317  0.0635
  566POPE   NH3 6325  10.433   7.320   2.178 -0.3691  0.1306 -0.0244
  566POPE   PO4 6326  10.120   7.250   2.422  0.2619  0.0767 -0.0797
  566POPE   GL1 6327  10.071   7.684   2.657  0.0447  0.0096 -0.1155
  566POPE   GL2 6328  10.231   7.973   2.742 -0.0527 -0.1043 -0.2240
  566POPE   C1A 6329   9.895   7.901   3.102 -0.0433 -0.3200  0.2294
  566POPE   D2A 6330   9.647   8.002   3.542 -0.0778  0.1262  0.1231
  566POPE   C3A 6331   9.655   8.036   4.009  0.1944 -0.1144  0.0422
  566POPE   C4A 6332   9.737   7.856   4.406  0.0788 -0.0324  0.2990
  566POPE   C1B 6333  10.360   8.046   3.189 -0.0905  0.1576 -0.2456
  566POPE   C2B 6334  10.431   7.729   3.447 -0.0092 -0.0963 -0.0097
  566POPE   C3B 6335  10.337   7.408   3.674  0.2223  0.2303  0.1184
  566POPE   C4B 6336  10.129   7.086   3.905  0.0939 -0.2791  0.0753
  567CHOL   ROH 6337   5.134   7.795   2.904  0.1070 -0.1023 -0.0192
  567CHOL    R1 6338   5.144   7.747   3.183  0.1129  0.0930  0.0151
  567CHOL    R2 6339   5.085   7.941   3.370 -0.1367  0.1517 -0.1262
  567CHOL    R3 6340   4.910   7.755   3.462  0.0539  0.0156 -0.0294
  567CHOL    R4 6341   4.998   7.899   3.702  0.0089  0.1606 -0.0858
  567CHOL    R5 6342   5.003   7.683   3.670  0.1904  0.1494 -0.0380
  567CHOL    C1 6343   4.782   7.700   3.981  0.2726  0.0379  0.0286
  567CHOL    C2 6344   5.085   7.810   4.318 -0.2669  0.2127  0.1540
  568POPS   CNO 6345  10.832  10.985   2.396 -0.0517 -0.0352 -0.0805
  568POPS   PO4 6346  10.793  11.493   2.369  0.0230 -0.3341  0.0107
  568POPS   GL1 6347  10.791  11.679   2.800 -0.1988  0.1328 -0.4151
  568POPS   GL2 6348  11.031  11.450   2.949  0.2479  0.1658  0.1995
  568POPS   C1A 6349  10.629  12.003   3.040 -0.0855  0.0705 -0.1971
  568POPS   D2A 6350  10.539  11.944   3.499  0.2218  0.0576  0.0590
  568POPS   C3A 6351  10.507  12.225   3.850 -0.2380  0.2395  0.0192
  568POPS   C4A 6352  10.592  12.249   4.305 -0.0592  0.0207  0.0718
  568POPS   C1B 6353  10.859  11.633   3.303  0.2212 -0.1368  0.0048
  568POPS   C2B 6354  10.614  11.438   3.743  0.0192  0.2918 -0.2164
  568POPS   C3B 6355  10.428  11.168   3.957 -0.2439 -0.0351  0.1550
  568POPS   C4B 6356  10.106  10.989   4.230 -0.1755  0.1908  0.0207
  569CHOL   ROH 6357   8.504   5.373   2.560 -0.0950 -0.1646  0.0075
  569CHOL    R1 6358   8.561   5.353   2.837  0.0541 -0.1836 -0.0243
  569CHOL    R2 6359   8.577   5.111   2.969  0.0636 -0.1893 -0.0374
  569CHOL    R3 6360   8.821   5.204   3.043  0.1305 -0.2554 -0.1705
  569CHOL    R4 6361   8.773   4.973   3.217 -0.0158 -0.0083  0.1288
  569CHOL    R5 6362   8.826   5.174   3.281  0.1220  0.0421 -0.1295
  569CHOL    C1 6363   9.117   4.979   3.432  0.0009  0.0351  0.1007
  569CHOL    C2 6364   9.415   4.757   3.482  0.0293  0.1496  0.0783
  570POPS   CNO 6365  11.017   5.687   1.888 -0.1497 -0.0672 -0.1893
  570POPS   PO4 6366  10.905   5.947   2.269  0.2310 -0.0731  0.0734
  570POPS   GL1 6367  10.737   5.819   2.676  0.0102 -0.2356  0.2255
  570POPS   GL2 6368  10.612   5.485   2.661  0.0154 -0.1958 -0.2816
  570POPS   C1A 6369  10.799   5.963   3.078  0.1373  0.1204  0.1967
  570POPS   D2A 6370  10.997   6.120   3.514  0.0793 -0.0012  0.1130
  570POPS   C3A 6371  10.822   5.823   3.790 -0.1697  0.0512  0.2929
  570POPS   C4A 6372  11.043   5.628   4.076 -0.1208  0.1107 -0.0540
  570POPS   C1B 6373  10.595   5.424   3.035 -0.0338 -0.1989  0.2316
  570POPS   C2B 6374  10.510   5.537   3.421 -0.2247 -0.2599 -0.0376
  570POPS   C3B 6375  10.305   5.624   3.721  0.2915  0.2199  0.0767
  570POPS   C4B 6376  10.598   5.489   4.109 -0.1771 -0.3439  0.0331
  571POPS   CNO 6377   5.503   7.490   2.231  0.2362 -0.2665  0.1245
  571POPS   PO4 6378   5.812   7.408   2.598  0.0484  0.2956 -0.1301
  571POPS   GL1 6379   5.814   7.627   2.979  0.1126 -0.0410 -0.3218
  571POPS   GL2 6380   5.833   7.341   3.151 -0.2174  0.1680  0.0253
  571POPS   C1A 6381   5.637   7.769   3.399  0.0750  0.3355 -0.1221
  571POPS   D2A 6382   5.629   7.985   3.779 -0.1307 -0.2843 -0.1868
  571POPS   C3A 6383   5.678   7.698   4.189  0.0017 -0.1572  0.0901
  571POPS   C4A 6384   5.930   7.612   4.547  0.1522 -0.0224  0.2101
  571POPS   C1B 6385   5.873   7.195   3.571  0.0229  0.3570 -0.5078
  571POPS   C2B 6386   5.759   7.240   4.008  0.4326 -0.1982 -0.0817
  571POPS   C3B 6387   5.735   7.086   4.337 -0.0720  0.1412  0.0992
  571POPS   C4B 6388   5.716   7.232   4.759  0.2816 -0.3282 -0.2430
  572POPS   CNO 6389   5.231   8.613   2.558  0.1757  0.1795 -0.2555
  572POPS   PO4 6390   5.189   8.200   2.429 -0.0408 -0.0443  0.3099
  572POPS   GL1 6391   4.857   8.263   2.819  0.2138  0.0422  0.2120
  572POPS   GL2 6392   4.927   8.285   3.130  0.3892  0.4148  0.0165
  572POPS   C1A 6393   5.086   8.703   3.096  0.0259 -0.0757 -0.2399
  572POPS   D2A 6394   5.134   8.700   3.586  0.0366 -0.4273 -0.1063
  572POPS   C3A 6395   5.553   8.764   3.817  0.2637 -0.1747  0.0082
  572POPS   C4A 6396   5.927   8.812   4.070  0.1923  0.0146  0.1396
  572POPS   C1B 6397   4.863   8.316   3.536 -0.1629  0.2988  0.1571
  572POPS   C2B 6398   4.717   8.621   3.734  0.4243  0.1254  0.2397
  572POPS   C3B 6399   5.074   8.732   4.070  0.2350 -0.0155 -0.1982
  572POPS   C4B 6400   5.442   9.066   4.218 -0.1786  0.0195 -0.3087
  573POPC   NC3 6401   6.864   9.716   1.796 -0.0968 -0.1345  0.2611
  573POPC   PO4 6402   6.554   9.698   2.154  0.1143 -0.0433  0.5008
  573POPC   GL1 6403   6.720   9.751   2.538  0.3472 -0.1805  0.4474
  573POPC   GL2 6404   6.836  10.030   2.630 -0.1016 -0.1302  0.2181
  573POPC   C1A 6405   6.599   9.688   2.933  0.0585  0.0720  0.0818
  573POPC   D2A 6406   6.663   9.694   3.360  0.0199  0.0790 -0.1730
  573POPC   C3A 6407   6.969   9.628   3.548  0.1728  0.1925 -0.1148
  573POPC   C4A 6408   7.126   9.317   3.761 -0.0337 -0.0910  0.0389
  573POPC   C1B 6409   6.868  10.015   3.085  0.0533 -0.0754 -0.1620
  573POPC   C2B 6410   6.742  10.196   3.547  0.2486 -0.2939 -0.0976
  573POPC   C3B 6411   6.743  10.688   3.828  0.2889 -0.0837 -0.0177
  573POPC   C4B 6412   6.722  10.968   4.215  0.0338  0.0322  0.0046
  574POSM   NC3 6413   8.253  12.298   1.550  0.0434 -0.1281 -0.0838
  574POSM   PO4 6414   8.561  11.914   1.663  0.0224  0.1582 -0.1032
  574POSM   AM1 6415   8.414  11.961   2.034  0.0380  0.1752 -0.1915
  574POSM   AM2 6416   8.433  11.645   2.095  0.0859 -0.0506  0.0447
  574POSM   T1A 6417   8.479  12.143   2.452  0.0466  0.0733 -0.1241
  574POSM   C2A 6418   8.429  12.274   2.920  0.1654 -0.0812  0.3761
  574POSM   C3A 6419   8.335  12.267   3.337 -0.1971  0.0537 -0.1294
  574POSM   C1B 6420   8.350  11.680   2.609 -0.1441  0.1765  0.1577
  574POSM   D2B 6421   8.311  11.302   2.824  0.1654  0.1426  0.0805
  574POSM   C3B 6422   8.511  11.276   3.151  0.1047  0.1081  0.0588
  574POSM   C4B 6423   8.654  11.363   3.466  0.1913 -0.2992 -0.0092
  575POSM   NC3 6424  10.568  10.854   1.824  0.0365  0.2649 -0.2473
  575POSM   PO4 6425  10.531  10.645   2.148  0.0717  0.3957 -0.2887
  575POSM   AM1 6426  10.853  10.464   2.450 -0.0616 -0.1201 -0.0763
  575POSM   AM2 6427  10.649  10.289   2.727 -0.1808  0.0989  0.3149
  575POSM   T1A 6428  10.959  10.644   2.888 -0.0865  0.1592 -0.0936
  575POSM   C2A 6429  11.161  10.808   3.168 -0.1063  0.0373  0.0929
  575POSM   C3A 6430  11.207  11.240   3.390 -0.0191  0.3320  0.2864
  575POSM   C1B 6431  10.557  10.461   3.104  0.1437  0.2030  0.0819
  575POSM   D2B 6432  10.892  10.517   3.453  0.1862 -0.1566 -0.0600
  575POSM   C3B 6433  10.816  10.467   3.946 -0.1557  0.0115 -0.0003
  575POSM   C4B 6434  10.637  10.023   4.153 -0.1922  0.0113 -0.2414
  576POPE   NH3 6435  11.809   6.843   2.210 -0.0899 -0.1162  0.3026
  576POPE   PO4 6436  11.497   6.706   2.406 -0.3191  0.1518  0.4298
  576POPE   GL1 6437  11.619   6.574   2.768 -0.0156 -0.0536 -0.3060
  576POPE   GL2 6438  11.918   6.710   2.755  0.0819  0.0512 -0.2107
  576POPE   C1A 6439  11.816   6.348   3.127 -0.1630  0.1049  0.1036
  576POPE   D2A 6440  11.733   6.198   3.522 -0.2803 -0.0782  0.3357
  576POPE   C3A 6441  11.947   6.266   3.831 -0.2746 -0.0215  0.0390
  576POPE   C4A 6442  11.978   6.228   4.210 -0.1054 -0.0657 -0.1772
  576POPE   C1B 6443  11.879   6.850   3.227  0.0582 -0.0432 -0.1788
  576POPE   C2B 6444  11.752   6.782   3.642  0.0923 -0.0653  0.4429
  576POPE   C3B 6445  11.435   6.538   3.843 -0.1601  0.1667 -0.1456
  576POPE   C4B 6446  11.516   6.410   4.291 -0.0809  0.0407  0.1134
  577POPE   NH3 6447   4.883   7.850   2.495 -0.3983  0.1834  0.2031
  577POPE   PO4 6448   5.104   7.403   2.530  0.0004  0.0695  0.1156
  577POPE   GL1 6449   5.342   7.302   2.933  0.1058  0.2052  0.2724
  577POPE   GL2 6450   5.438   6.980   2.942 -0.1659  0.1319  0.0638
  577POPE   C1A 6451   5.364   7.341   3.315  0.2079 -0.0138  0.6773
  577POPE   D2A 6452   5.452   7.445   3.701 -0.1307 -0.0406  0.1100
  577POPE   C3A 6453   5.228   7.429   4.065  0.1335  0.0234  0.3840
  577POPE   C4A 6454   5.282   7.311   4.410 -0.3466 -0.0864 -0.3750
  577POPE   C1B 6455   5.018   6.928   3.244  0.0128 -0.2119  0.1010
  577POPE   C2B 6456   4.989   7.225   3.635 -0.0495  0.3791 -0.0207
  577POPE   C3B 6457   4.771   7.166   4.049  0.0096 -0.2089  0.0088
  577POPE   C4B 6458   4.737   7.456   4.428 -0.0905  0.0171  0.2563
  578CHOL   ROH 6459   7.192   4.032   2.956 -0.1996 -0.1990  0.0426
  578CHOL    R1 6460   7.369   4.036   3.178 -0.1740 -0.3471  0.0253
  578CHOL    R2 6461   7.374   4.244   3.360  0.1504 -0.2586 -0.0889
  578CHOL    R3 6462   7.337   4.044   3.540 -0.1324 -0.1103  0.0273
  578CHOL    R4 6463   7.452   4.264   3.696  0.2939 -0.1961 -0.1243
  578CHOL    R5 6464   7.526   4.060   3.686 -0.0462 -0.3420 -0.0420
  578CHOL    C1 6465   7.462   4.088   4.061  0.1121 -0.0205 -0.0359
  578CHOL    C2 6466   7.665   3.819   4.293  0.0076  0.0609 -0.1507
  579POPE   NH3 6467   5.590   9.631   2.232  0.0701  0.0483 -0.3369
  579POPE   PO4 6468   5.269   9.468   2.447 -0.3854  0.0852 -0.0956
  579POPE   GL1 6469   5.583   9.623   2.723  0.0584  0.0197  0.1938
  579POPE   GL2 6470   5.742   9.898   2.642 -0.0789  0.0127  0.1108
  579POPE   C1A 6471   5.976   9.606   2.950  0.0423 -0.3179  0.4925
  579POPE   D2A 6472   6.150   9.517   3.247 -0.1144  0.2764 -0.1534
  579POPE   C3A 6473   6.214   9.513   3.683 -0.1751  0.4131 -0.0782
  579POPE   C4A 6474   6.584   9.784   3.875 -0.1182  0.0933 -0.1924
  579POPE   C1B 6475   5.599   9.978   3.119  0.2749 -0.0233 -0.1091
  579POPE   C2B 6476   5.441  10.139   3.581  0.0780 -0.2471 -0.1248
  579POPE   C3B 6477   5.390  10.097   3.988  0.0537 -0.1708 -0.1424
  579POPE   C4B 6478   5.146  10.327   4.240 -0.2269 -0.0206  0.0167
  580POSM   NC3 6479   5.268   5.767   1.607  0.2786  0.2661  0.2879
  580POSM   PO4 6480   5.017   5.419   1.934  0.0084 -0.3773  0.0902
  580POSM   AM1 6481   5.211   5.279   2.244 -0.0553  0.0868 -0.0328
  580POSM   AM2 6482   5.399   5.379   2.626  0.1179 -0.4638  0.2753
  580POSM   T1A 6483   5.346   4.876   2.484 -0.1275  0.0781 -0.0100
  580POSM   C2A 6484   5.100   4.606   2.698 -0.1006  0.0696 -0.0654
  580POSM   C3A 6485   5.034   4.142   2.682  0.1022 -0.0255 -0.0775
  580POSM   C1B 6486   5.444   5.053   2.927 -0.0823  0.3002  0.0424
  580POSM   D2B 6487   5.617   4.787   3.211 -0.1566 -0.0684  0.0811
  580POSM   C3B 6488   5.598   4.799   3.643  0.2703 -0.2466 -0.2374
  580POSM   C4B 6489   5.842   4.923   3.935  0.1318  0.0076 -0.2003
  581POSM   NC3 6490  10.740   9.508   1.546  0.2012 -0.2034 -0.1755
  581POSM   PO4 6491  10.842   9.394   1.992  0.0121 -0.0279 -0.3356
  581POSM   AM1 6492  10.949   9.234   2.374  0.0330  0.1386 -0.1763
  581POSM   AM2 6493  11.061   9.399   2.691 -0.1130  0.1071  0.0959
  581POSM   T1A 6494  11.374   9.041   2.462  0.0694  0.0521 -0.0596
  581POSM   C2A 6495  11.736   9.049   2.752 -0.3697 -0.0631  0.0840
  581POSM   C3A 6496  11.917   8.963   3.153  0.0255  0.2480  0.2315
  581POSM   C1B 6497  10.971   9.247   3.188  0.0126 -0.1190  0.0844
  581POSM   D2B 6498  10.804   8.833   3.282 -0.0555  0.0105 -0.3061
  581POSM   C3B 6499  11.096   8.733   3.599  0.2451  0.0180  0.2970
  581POSM   C4B 6500  11.448   8.580   3.842 -0.2685  0.0742 -0.0363
  582POPC   NC3 6501   4.277   5.339   2.304  0.1233  0.0448 -0.2648
  582POPC   PO4 6502   4.727   5.230   2.317 -0.2056  0.2316  0.1840
  582POPC   GL1 6503   4.948   5.226   2.726 -0.0022 -0.2478  0.1052
  582POPC   GL2 6504   4.828   5.444   2.993 -0.0079 -0.0391 -0.3272
  582POPC   C1A 6505   5.034   4.920   3.095  0.1888  0.0828  0.4475
  582POPC   D2A 6506   5.122   4.816   3.534 -0.1623  0.1647 -0.1068
  582POPC   C3A 6507   5.065   4.677   3.922  0.2666  0.0083 -0.1000
  582POPC   C4A 6508   5.384   4.575   4.247  0.0200  0.1930  0.4663
  582POPC   C1B 6509   4.882   5.285   3.335  0.3046  0.2267  0.0089
  582POPC   C2B 6510   4.876   5.255   3.799  0.2812  0.0210  0.1812
  582POPC   C3B 6511   4.932   5.505   4.092 -0.1118 -0.7998 -0.2012
  582POPC   C4B 6512   4.943   5.861   4.284  0.1099 -0.1884 -0.1600
  583POSM   NC3 6513   6.307   4.605   1.965 -0.2542 -0.2417  0.2686
  583POSM   PO4 6514   6.645   4.299   2.066  0.1480 -0.3234 -0.1094
  583POSM   AM1 6515   6.439   4.365   2.515  0.0693 -0.1229 -0.2866
  583POSM   AM2 6516   6.152   4.567   2.529 -0.1206  0.0388  0.1208
  583POSM   T1A 6517   6.364   4.284   2.885  0.2557  0.2241 -0.0953
  583POSM   C2A 6518   6.455   4.384   3.330 -0.0704 -0.0773 -0.0169
  583POSM   C3A 6519   6.391   4.279   3.676  0.1050  0.1066 -0.2469
  583POSM   C1B 6520   5.690   4.534   2.656  0.1889  0.0991  0.2369
  583POSM   D2B 6521   5.430   4.342   2.975  0.1089  0.2158 -0.0771
  583POSM   C3B 6522   5.396   4.410   3.458 -0.1779 -0.1564  0.0363
  583POSM   C4B 6523   5.285   4.265   3.864 -0.1376  0.0450 -0.0402
  584POSM   NC3 6524  12.037   8.963   1.822 -0.2553  0.0584 -0.1164
  584POSM   PO4 6525  12.220   8.723   2.077 -0.4462 -0.1315  0.0065
  584POSM   AM1 6526  12.194   8.759   2.480  0.0163 -0.2893  0.3282
  584POSM   AM2 6527  12.504   8.974   2.484  0.0424 -0.1737 -0.2992
  584POSM   T1A 6528  12.113   8.527   2.786  0.4605 -0.0055 -0.0867
  584POSM   C2A 6529  11.931   8.389   3.073  0.1709  0.0730  0.1918
  584POSM   C3A 6530  11.740   8.463   3.444 -0.0399 -0.1313 -0.2150
  584POSM   C1B 6531  12.320   9.293   2.948  0.2794  0.0671 -0.1935
  584POSM   D2B 6532  12.043   9.636   3.178 -0.0655  0.0897 -0.1154
  584POSM   C3B 6533  12.006   9.599   3.638  0.2504 -0.1641 -0.1738
  584POSM   C4B 6534  11.673   9.461   3.944  0.0517  0.2370 -0.1606
  585POPS   CNO 6535  10.498  13.137   2.484 -0.0590 -0.0799 -0.0390
  585POPS   PO4 6536  10.536  12.646   2.434  0.0684 -0.0547 -0.1450
  585POPS   GL1 6537  10.408  12.711   2.804 -0.2749 -0.0055 -0.0287
  585POPS   GL2 6538  10.179  12.655   2.894 -0.0493 -0.0001  0.2475
  585POPS   C1A 6539  10.539  13.083   3.149 -0.0464  0.1108  0.0999
  585POPS   D2A 6540  10.943  13.339   3.498 -0.2151  0.0991 -0.1771
  585POPS   C3A 6541  11.019  13.133   3.825  0.0364  0.0477 -0.0279
  585POPS   C4A 6542  11.211  13.069   4.284 -0.1241 -0.0123  0.0508
  585POPS   C1B 6543   9.913  12.547   3.274 -0.2842 -0.1825 -0.1495
  585POPS   C2B 6544   9.703  12.552   3.717  0.3266  0.1961  0.2842
  585POPS   C3B 6545   9.894  12.477   4.192  0.2677 -0.1121  0.0158
  585POPS   C4B 6546  10.013  12.538   4.566  0.1953 -0.2957 -0.1567
  586POSM   NC3 6547  12.236   7.513   1.513 -0.0470  0.0951 -0.1995
  586POSM   PO4 6548  12.266   7.689   1.999 -0.2009 -0.1195  0.3849
  586POSM   AM1 6549  12.045   7.704   2.499 -0.1023  0.1871 -0.0608
  586POSM   AM2 6550  11.839   7.952   2.645 -0.0396  0.2785 -0.0660
  586POSM   T1A 6551  12.082   7.685   2.949  0.0492  0.2849  0.0957
  586POSM   C2A 6552  12.048   7.987   3.306 -0.0180  0.0185  0.0169
  586POSM   C3A 6553  11.969   8.123   3.765 -0.0235  0.0625 -0.0005
  586POSM   C1B 6554  11.646   7.877   3.036 -0.0180 -0.1306 -0.2271
  586POSM   D2B 6555  11.540   7.808   3.433  0.0087 -0.0021  0.0771
  586POSM   C3B 6556  11.671   7.746   3.868  0.0867  0.3093 -0.1284
  586POSM   C4B 6557  11.496   7.616   4.256  0.1836  0.1465  0.3740
  587POPE   NH3 6558  11.621  11.990   2.240 -0.3625  0.3760 -0.4058
  587POPE   PO4 6559  11.306  12.218   2.271  0.2906  0.0774  0.0185
  587POPE   GL1 6560  11.324  12.156   2.684  0.1130  0.0568  0.0287
  587POPE   GL2 6561  11.050  12.385   2.799 -0.1224  0.2310 -0.0912
  587POPE   C1A 6562  11.167  11.959   3.034 -0.2135  0.1204  0.0217
  587POPE   D2A 6563  11.210  11.960   3.495 -0.1455 -0.0515 -0.0348
  587POPE   C3A 6564  11.314  11.676   3.673  0.2513  0.0952  0.2848
  587POPE   C4A 6565  11.351  11.627   3.942 -0.3186  0.1019  0.0944
  587POPE   C1B 6566  10.766  12.486   3.077 -0.0408 -0.1602 -0.1687
  587POPE   C2B 6567  10.366  12.567   3.354  0.0748  0.1104  0.0685
  587POPE   C3B 6568  10.214  12.641   3.631 -0.2976  0.1312 -0.3153
  587POPE   C4B 6569  10.336  12.683   4.082 -0.1316  0.2464  0.0502
  588POPE   NH3 6570   9.627  12.925   2.079  0.1561 -0.1290  0.3744
  588POPE   PO4 6571   9.807  12.580   1.948 -0.1321  0.1915 -0.2009
  588POPE   GL1 6572   9.643  12.199   2.162 -0.0108 -0.4778  0.3661
  588POPE   GL2 6573   9.809  11.958   2.404 -0.1124 -0.3812  0.4253
  588POPE   C1A 6574   9.352  12.153   2.463 -0.0932 -0.1596  0.1388
  588POPE   D2A 6575   9.015  12.075   2.562  0.1066  0.0235  0.1956
  588POPE   C3A 6576   8.810  11.868   2.770  0.1214 -0.1603  0.0121
  588POPE   C4A 6577   8.832  11.633   3.098  0.2063 -0.0319  0.0154
  588POPE   C1B 6578   9.869  11.894   2.890 -0.3122 -0.0204  0.0127
  588POPE   C2B 6579   9.906  11.787   3.245  0.0252  0.0295 -0.3675
  588POPE   C3B 6580   9.711  11.796   3.578 -0.1979  0.2186  0.1310
  588POPE   C4B 6581   9.400  11.813   3.863 -0.2490  0.2118  0.0179
  589POPS   CNO 6582   6.192  10.625   2.071  0.2331  0.1423  0.2219
  589POPS   PO4 6583   6.361  10.947   2.339  0.0961  0.2676 -0.1257
  589POPS   GL1 6584   6.462  11.078   2.766  0.2060  0.0024 -0.1136
  589POPS   GL2 6585   6.690  10.862   2.776 -0.2280 -0.0583  0.1110
  589POPS   C1A 6586   6.408  11.423   3.172 -0.2545  0.0129 -0.2605
  589POPS   D2A 6587   6.173  11.444   3.573  0.0593 -0.2143  0.0352
  589POPS   C3A 6588   5.915  11.343   3.960 -0.4775 -0.1274  0.0230
  589POPS   C4A 6589   5.756  11.058   4.323  0.0159  0.1581  0.0579
  589POPS   C1B 6590   6.665  10.969   3.200  0.0218 -0.0483  0.0170
  589POPS   C2B 6591   6.549  11.116   3.596  0.3952  0.3300 -0.1266
  589POPS   C3B 6592   6.496  11.319   3.962  0.2148  0.1491 -0.0115
  589POPS   C4B 6593   6.206  11.722   4.199  0.0915 -0.0523  0.1086
  590POSM   NC3 6594   9.162   4.150   1.838  0.1035 -0.1763 -0.2934
  590POSM   PO4 6595   9.458   3.871   2.004 -0.2776 -0.3776 -0.0754
  590POSM   AM1 6596   9.177   3.807   2.417  0.0277  0.1193  0.3619
  590POSM   AM2 6597   8.834   3.996   2.364 -0.3185 -0.3453  0.0845
  590POSM   T1A 6598   9.184   3.855   2.817  0.2816  0.1307 -0.1437
  590POSM   C2A 6599   9.379   3.721   3.149 -0.4143  0.0529 -0.0600
  590POSM   C3A 6600   9.376   3.658   3.554 -0.1365  0.1213  0.0114
  590POSM   C1B 6601   8.599   4.141   2.725 -0.2078 -0.1623 -0.1856
  590POSM   D2B 6602   8.703   4.124   3.145 -0.1162 -0.3391 -0.2500
  590POSM   C3B 6603   9.037   3.964   3.342 -0.1184  0.1991  0.0709
  590POSM   C4B 6604   9.027   3.883   3.822  0.1142  0.1530 -0.0612
  591POPS   CNO 6605  10.706   5.100   2.256 -0.0510 -0.0382 -0.0349
  591POPS   PO4 6606  10.306   5.231   2.387  0.1379  0.1729  0.1918
  591POPS   GL1 6607  10.214   5.159   2.772 -0.0098  0.2559 -0.0387
  591POPS   GL2 6608  10.124   5.356   3.003  0.1027  0.0249  0.1396
  591POPS   C1A 6609   9.842   4.911   3.008 -0.3958  0.1785  0.3464
  591POPS   D2A 6610   9.889   4.536   3.176  0.1402 -0.1352  0.0061
  591POPS   C3A 6611   9.881   4.305   3.661 -0.1536  0.1422 -0.2319
  591POPS   C4A 6612   9.939   4.022   4.027 -0.1038  0.2560 -0.0009
  591POPS   C1B 6613  10.193   5.131   3.369  0.2462  0.1214  0.0101
  591POPS   C2B 6614  10.391   5.150   3.768 -0.3010 -0.0060  0.2593
  591POPS   C3B 6615  10.327   5.103   4.143 -0.2136 -0.1051  0.0506
  591POPS   C4B 6616  10.622   4.954   4.423 -0.2956 -0.0069  0.0867
  592CHOL   ROH 6617   9.357  12.666   2.523 -0.0456  0.0694 -0.0029
  592CHOL    R1 6618   9.307  12.551   2.778  0.0204 -0.0111 -0.0247
  592CHOL    R2 6619   9.086  12.617   2.930  0.1661  0.1029  0.1490
  592CHOL    R3 6620   9.047  12.348   2.930 -0.0549  0.1337  0.0379
  592CHOL    R4 6621   8.940  12.437   3.187  0.0272  0.1063  0.0730
  592CHOL    R5 6622   9.088  12.281   3.155 -0.1044  0.0004  0.0044
  592CHOL    C1 6623   8.819  12.080   3.336 -0.2611  0.1372 -0.0755
  592CHOL    C2 6624   8.789  12.226   3.679  0.1291  0.2816  0.3171
  593CHOL   ROH 6625   4.842   7.452   3.059 -0.0783 -0.2768  0.1792
  593CHOL    R1 6626   4.629   7.475   3.244 -0.0357 -0.0871  0.2066
  593CHOL    R2 6627   4.569   7.278   3.427 -0.1223  0.0094  0.2868
  593CHOL    R3 6628   4.593   7.481   3.606  0.0288  0.0592  0.2116
  593CHOL    R4 6629   4.427   7.281   3.742 -0.0206  0.1843  0.3321
  593CHOL    R5 6630   4.378   7.492   3.712  0.0678  0.1963  0.2766
  593CHOL    C1 6631   4.366   7.474   4.093  0.1805  0.3328  0.2879
  593CHOL    C2 6632   4.175   7.567   4.450  0.0790 -0.0106  0.2070
  594POPE   NH3 6633   6.410  10.206   2.188 -0.0237  0.0460 -0.2877
  594POPE   PO4 6634   5.965  10.115   2.200  0.0102  0.3322  0.1514
  594POPE   GL1 6635   6.106  10.490   2.580 -0.1351 -0.0494 -0.3088
  594POPE   GL2 6636   6.429  10.477   2.623  0.4251 -0.0120 -0.2035
  594POPE   C1A 6637   6.167  10.688   2.984  0.0926 -0.1589  0.1550
  594POPE   D2A 6638   6.161  10.994   3.269 -0.0328  0.0049  0.1713
  594POPE   C3A 6639   5.842  11.124   3.457 -0.1679  0.2562  0.0965
  594POPE   C4A 6640   5.484  11.140   3.776 -0.0016  0.0602  0.0905
  594POPE   C1B 6641   6.606  10.447   3.042 -0.0354  0.1886  0.0335
  594POPE   C2B 6642   6.492  10.630   3.442 -0.0850  0.0289 -0.1028
  594POPE   C3B 6643   6.149  10.623   3.679  0.2093 -0.0977  0.0762
  594POPE   C4B 6644   6.052  10.818   4.028 -0.1958 -0.1841 -0.2576
  595POPE   NH3 6645   4.370   8.754   2.260 -0.0525 -0.3449 -0.3758
  595POPE   PO4 6646   4.811   9.004   2.424  0.0315  0.1605 -0.0682
  595POPE   GL1 6647   4.694   8.790   2.823 -0.0064  0.1350 -0.0420
  595POPE   GL2 6648   4.420   8.597   2.813  0.1358  0.0867 -0.3145
  595POPE   C1A 6649   4.664   8.778   3.324 -0.1282 -0.1148  0.1305
  595POPE   D2A 6650   4.460   9.145   3.621  0.1914 -0.0129 -0.5209
  595POPE   C3A 6651   4.606   9.048   3.947  0.2126  0.0401  0.1706
  595POPE   C4A 6652   4.568   8.814   4.250  0.0589  0.0768 -0.1116
  595POPE   C1B 6653   4.413   8.355   3.219 -0.1798  0.0862  0.1145
  595POPE   C2B 6654   4.300   8.420   3.661 -0.0025  0.0891 -0.0787
  595POPE   C3B 6655   4.201   8.770   3.859  0.0358  0.0470  0.1230
  595POPE   C4B 6656   3.942   8.855   4.318  0.1423 -0.1850 -0.1029
  596CHOL   ROH 6657   6.803   3.881   2.776  0.0888  0.1499 -0.1947
  596CHOL    R1 6658   6.793   4.007   3.029 -0.1039  0.0736 -0.1628
  596CHOL    R2 6659   6.694   3.882   3.254 -0.0277 -0.0921 -0.2183
  596CHOL    R3 6660   6.935   3.949   3.359 -0.1207  0.1327 -0.1442
  596CHOL    R4 6661   6.773   3.868   3.590 -0.1354  0.0336 -0.1875
  596CHOL    R5 6662   6.882   4.056   3.567 -0.2866  0.1238 -0.1813
  596CHOL    C1 6663   7.046   3.924   3.884 -0.2855  0.3179 -0.1000
  596CHOL    C2 6664   6.946   4.022   4.200  0.0951  0.1717 -0.1669
  597POPS   CNO 6665   4.238   6.807   2.390 -0.0065 -0.2906 -0.0615
  597POPS   PO4 6666   4.640   6.672   2.483  0.4062 -0.1080 -0.1285
  597POPS   GL1 6667   4.711   6.423   2.773  0.2193  0.1062 -0.0563
  597POPS   GL2 6668   4.748   6.024   2.935  0.3791  0.0570  0.1799
  597POPS   C1A 6669   4.757   6.423   3.144 -0.0493 -0.1467  0.1316
  597POPS   D2A 6670   4.911   6.333   3.510  0.0343 -0.1682 -0.4664
  597POPS   C3A 6671   5.150   6.619   3.636  0.0878 -0.0833 -0.1299
  597POPS   C4A 6672   5.499   6.868   3.450 -0.1061 -0.0363 -0.0050
  597POPS   C1B 6673   4.464   6.028   3.315 -0.0542  0.0673  0.1571
  597POPS   C2B 6674   4.390   6.233   3.746  0.2276  0.0820  0.2404
  597POPS   C3B 6675   4.323   6.610   4.170 -0.0945  0.1351  0.1572
  597POPS   C4B 6676   4.249   6.988   4.247  0.0209  0.1285 -0.1295
  598CHOL   ROH 6677   6.722  11.476   2.756 -0.1440 -0.1381 -0.0179
  598CHOL    R1 6678   6.898  11.443   2.976 -0.0621  0.0094 -0.0618
  598CHOL    R2 6679   6.915  11.626   3.182 -0.1465  0.0372 -0.0829
  598CHOL    R3 6680   6.867  11.408   3.337  0.0588  0.0125 -0.0493
  598CHOL    R4 6681   7.001  11.598   3.515  0.0561  0.0945 -0.1278
  598CHOL    R5 6682   7.060  11.392   3.478  0.1500  0.1223 -0.1559
  598CHOL    C1 6683   7.006  11.377   3.855  0.3667  0.1046 -0.1225
  598CHOL    C2 6684   7.091  11.455   4.208  0.1243 -0.2276  0.4516
  599POPC   NC3 6685  11.237  10.238   2.236 -0.0033 -0.2757  0.1860
  599POPC   PO4 6686  11.245  10.693   2.145  0.0394 -0.1876 -0.3214
  599POPC   GL1 6687  11.512  10.554   2.434 -0.1341  0.0010 -0.2082
  599POPC   GL2 6688  11.346  10.760   2.636  0.1888  0.1221 -0.2964
  599POPC   C1A 6689  11.885  10.707   2.642  0.0934  0.0484 -0.1853
  599POPC   D2A 6690  12.090  10.895   3.032  0.0227  0.1278  0.0453
  599POPC   C3A 6691  12.276  10.489   3.248 -0.1051  0.1876  0.2082
  599POPC   C4A 6692  12.484  10.181   3.171 -0.0428  0.0624  0.0148
  599POPC   C1B 6693  11.534  10.531   2.956 -0.1924  0.0663  0.3145
  599POPC   C2B 6694  11.777  10.448   3.377 -0.0905 -0.2348  0.1316
  599POPC   C3B 6695  11.974  10.726   3.732  0.2857  0.0540 -0.0369
  599POPC   C4B 6696  11.801  10.789   4.134  0.1952 -0.1277  0.0244
  600POPE   NH3 6697  12.041  11.893   2.514 -0.1001  0.1338  0.0378
  600POPE   PO4 6698  11.668  11.672   2.639  0.0034 -0.1983 -0.0499
  600POPE   GL1 6699  11.603  11.477   2.947  0.2926  0.1807 -0.0728
  600POPE   GL2 6700  11.558  11.099   2.986  0.1148  0.1170  0.0647
  600POPE   C1A 6701  11.673  11.427   3.424 -0.1989  0.0509  0.2604
  600POPE   D2A 6702  11.667  11.212   3.825 -0.4421 -0.1571 -0.0533
  600POPE   C3A 6703  11.899  11.308   4.272 -0.1289 -0.2354  0.2682
  600POPE   C4A 6704  11.659  11.556   4.645 -0.0191  0.0704  0.1062
  600POPE   C1B 6705  11.613  10.912   3.325 -0.3892  0.2107  0.3798
  600POPE   C2B 6706  11.377  10.830   3.741 -0.0097 -0.3709 -0.1398
  600POPE   C3B 6707  11.273  10.716   4.188  0.4357  0.1954 -0.0856
  600POPE   C4B 6708  11.530  10.527   4.483 -0.1741  0.1041  0.0960
  601POPS   CNO 6709  12.210   6.550   2.381 -0.3291 -0.0169  0.3803
  601POPS   PO4 6710  12.345   6.800   2.169 -0.2380  0.0142 -0.2544
  601POPS   GL1 6711  12.423   6.994   2.563  0.0771  0.1614 -0.2052
  601POPS   GL2 6712  12.632   6.747   2.750  0.1525  0.0620  0.0191
  601POPS   C1A 6713  12.318   7.228   2.926  0.0966 -0.0089 -0.1521
  601POPS   D2A 6714  12.517   7.318   3.287  0.3682 -0.0227  0.1237
  601POPS   C3A 6715  12.196   7.551   3.523 -0.0246 -0.0880  0.0955
  601POPS   C4A 6716  12.133   7.660   3.964 -0.1679 -0.1097  0.2570
  601POPS   C1B 6717  12.655   6.894   3.209 -0.0582 -0.0166 -0.0442
  601POPS   C2B 6718  12.733   6.906   3.713  0.0067 -0.1190 -0.2953
  601POPS   C3B 6719  12.679   7.106   4.065 -0.1741  0.0134 -0.3273
  601POPS   C4B 6720  12.334   7.105   4.390 -0.0170  0.2418  0.3080
  602POPS   CNO 6721   7.820   3.422   2.622 -0.1598 -0.1421 -0.0437
  602POPS   PO4 6722   7.880   3.816   2.397  0.3971  0.2170 -0.0409
  602POPS   GL1 6723   7.780   3.927   2.824  0.3011  0.2417  0.0505
  602POPS   GL2 6724   7.685   3.676   3.003 -0.0935  0.1236  0.1605
  602POPS   C1A 6725   7.829   4.080   3.308 -0.1530 -0.0890 -0.3245
  602POPS   D2A 6726   8.027   4.153   3.712 -0.0887  0.3035  0.0493
  602POPS   C3A 6727   8.119   4.024   4.041  0.3252 -0.0546 -0.0372
  602POPS   C4A 6728   8.385   3.889   4.325 -0.2364 -0.0037  0.1349
  602POPS   C1B 6729   7.761   3.612   3.382 -0.1193  0.0557 -0.1770
  602POPS   C2B 6730   7.835   3.663   3.778 -0.0466  0.1635 -0.1628
  602POPS   C3B 6731   8.135   3.510   4.057  0.1027  0.0576  0.0449
  602POPS   C4B 6732   8.482   3.387   4.401 -0.1803 -0.1084  0.0965
  603POPC   NC3 6733   4.527   7.184   2.592 -0.0117 -0.1200  0.4167
  603POPC   PO4 6734   4.493   7.581   2.628  0.1109  0.3369 -0.0359
  603POPC   GL1 6735   4.262   7.520   2.874  0.3656  0.2059  0.1984
  603POPC   GL2 6736   4.237   7.277   2.963  0.1064 -0.4308 -0.0657
  603POPC   C1A 6737   4.216   7.767   3.267  0.2669 -0.0493 -0.0169
  603POPC   D2A 6738   4.012   7.977   3.495  0.1256  0.2294 -0.0602
  603POPC   C3A 6739   3.890   8.183   3.912  0.0345  0.3322 -0.2512
  603POPC   C4A 6740   4.188   8.363   4.220  0.3474  0.1334  0.2798
  603POPC   C1B 6741   4.100   7.287   3.299  0.2724 -0.2643 -0.0685
  603POPC   C2B 6742   3.907   7.419   3.498 -0.2951  0.0641  0.0127
  603POPC   C3B 6743   3.914   7.614   3.861  0.2632  0.0190 -0.3577
  603POPC   C4B 6744   3.758   7.756   4.193 -0.3145  0.0984  0.2001
  604POSM   NC3 6745  11.636   4.998   2.159  0.1492  0.0929 -0.1029
  604POSM   PO4 6746  11.525   5.455   2.197  0.2756  0.0495 -0.3174
  604POSM   AM1 6747  11.156   5.532   2.499 -0.1387  0.0595 -0.0172
  604POSM   AM2 6748  11.285   5.836   2.631  0.3665  0.3081 -0.1522
  604POSM   T1A 6749  11.048   5.515   2.922 -0.2400  0.0400 -0.2601
  604POSM   C2A 6750  10.982   5.600   3.388 -0.2220  0.0637 -0.0587
  604POSM   C3A 6751  11.164   5.343   3.704 -0.0268 -0.0513  0.0187
  604POSM   C1B 6752  11.263   6.304   2.900 -0.0563  0.1411  0.0579
  604POSM   D2B 6753  11.039   6.705   2.869 -0.0222 -0.2130  0.1289
  604POSM   C3B 6754  10.858   6.906   3.246 -0.2438 -0.2162 -0.2171
  604POSM   C4B 6755  10.682   7.234   3.349 -0.3314 -0.0002  0.2149
  605CHOL   ROH 6756   5.056   9.281   2.893 -0.0603 -0.0290 -0.0852
  605CHOL    R1 6757   5.000   9.179   3.151 -0.0952  0.0252 -0.0709
  605CHOL    R2 6758   5.195   9.145   3.344 -0.0962 -0.0605 -0.0806
  605CHOL    R3 6759   5.028   9.298   3.494 -0.0055  0.0452 -0.0860
  605CHOL    R4 6760   5.238   9.213   3.680  0.0081  0.0414 -0.1140
  605CHOL    R5 6761   5.024   9.189   3.707  0.0111  0.1223 -0.0492
  605CHOL    C1 6762   5.106   9.396   4.017  0.1540  0.2000 -0.1385
  605CHOL    C2 6763   5.301   9.636   4.319 -0.0310 -0.0300  0.1025
  606CHOL   ROH 6764   6.260   9.942   2.595  0.1230 -0.1561  0.1407
  606CHOL    R1 6765   6.304  10.071   2.843  0.1057 -0.0836  0.1053
  606CHOL    R2 6766   6.098  10.148   3.010  0.1006 -0.1139  0.1048
  606CHOL    R3 6767   6.235  10.001   3.193  0.1659 -0.0216  0.1317
  606CHOL    R4 6768   6.081  10.194   3.352  0.0702 -0.0527  0.0957
  606CHOL    R5 6769   6.296  10.160   3.362  0.0924  0.0443  0.1033
  606CHOL    C1 6770   6.199  10.084   3.723  0.1140  0.0695  0.1156
  606CHOL    C2 6771   5.859  10.230   3.802  0.1516 -0.0665  0.1164
  607POPC   NC3 6772   7.938  12.145   1.879 -0.0108 -0.0732  0.0434
  607POPC   PO4 6773   7.934  11.664   1.962 -0.1581  0.2975 -0.0035
  607POPC   GL1 6774   7.986  11.970   2.350 -0.0955  0.3218  0.3339
  607POPC   GL2 6775   7.929  12.339   2.343  0.0701  0.0008  0.2081
  607POPC   C1A 6776   8.075  12.027   2.775  0.2645 -0.4095  0.2244
  607POPC   D2A 6777   8.280  11.853   3.069  0.0597  0.1598  0.0332
  607POPC   C3A 6778   8.414  11.782   3.523  0.3546 -0.4173 -0.2367
  607POPC   C4A 6779   8.415  11.787   3.863  0.1540  0.1169  0.0182
  607POPC   C1B 6780   7.918  12.526   2.790 -0.0064  0.1041  0.1120
  607POPC   C2B 6781   7.914  12.517   3.229  0.0381  0.0420  0.1932
  607POPC   C3B 6782   7.985  12.440   3.717 -0.0775 -0.1473  0.3549
  607POPC   C4B 6783   8.331  12.326   3.961 -0.1376 -0.1361  0.0564
  608POPS   CNO 6784  12.041  11.244   1.907 -0.2939 -0.0079  0.1068
  608POPS   PO4 6785  12.158  11.402   2.350 -0.1223 -0.0647 -0.0146
  608POPS   GL1 6786  12.088  11.334   2.892 -0.1740  0.1186 -0.0815
  608POPS   GL2 6787  12.337  11.562   2.840  0.1895 -0.1237 -0.1142
  608POPS   C1A 6788  12.154  11.410   3.289  0.0705  0.3032  0.2916
  608POPS   D2A 6789  12.187  11.120   3.589  0.0848 -0.3864 -0.1586
  608POPS   C3A 6790  12.362  11.159   3.945 -0.0498  0.1547 -0.1046
  608POPS   C4A 6791  12.707  11.143   4.254  0.0217  0.1016  0.1272
  608POPS   C1B 6792  12.186  11.843   3.123 -0.0243 -0.0931 -0.3258
  608POPS   C2B 6793  12.213  11.866   3.518  0.1887 -0.1280  0.2903
  608POPS   C3B 6794  12.055  11.616   3.870  0.1995 -0.5616 -0.1959
  608POPS   C4B 6795  11.798  11.771   4.227  0.0902 -0.0039  0.5820
  609CHOL   ROH 6796   4.380   6.790   2.929  0.2394  0.2088 -0.0340
  609CHOL    R1 6797   4.462   6.888   3.181 -0.0374  0.0872  0.1087
  609CHOL    R2 6798   4.341   6.812   3.418 -0.0628 -0.3189 -0.0191
  609CHOL    R3 6799   4.596   6.747   3.489 -0.0036 -0.0275  0.0407
  609CHOL    R4 6800   4.447   6.748   3.741 -0.1315 -0.5324 -0.0382
  609CHOL    R5 6801   4.629   6.858   3.698 -0.2718 -0.2170  0.1833
  609CHOL    C1 6802   4.747   6.650   3.995 -0.1159 -0.3831  0.0068
  609CHOL    C2 6803   5.040   6.602   4.259 -0.2556  0.1147 -0.0867
  610POPE   NH3 6804   7.370   3.667   2.601 -0.5026  0.2147  0.0988
  610POPE   PO4 6805   7.014   3.400   2.587 -0.5280  0.0130 -0.2290
  610POPE   GL1 6806   6.990   3.444   2.970  0.0469 -0.2526 -0.4200
  610POPE   GL2 6807   7.244   3.595   3.181  0.1193 -0.1515  0.0936
  610POPE   C1A 6808   6.822   3.274   3.380 -0.2323  0.2775 -0.4157
  610POPE   D2A 6809   7.051   2.893   3.629  0.2957  0.0874  0.1650
  610POPE   C3A 6810   7.257   3.031   3.959 -0.0356 -0.3399 -0.0884
  610POPE   C4A 6811   7.633   3.333   4.111  0.0473  0.1777 -0.0786
  610POPE   C1B 6812   7.241   3.562   3.597  0.3927 -0.0428  0.0821
  610POPE   C2B 6813   6.932   3.425   3.889 -0.1084 -0.1764 -0.0252
  610POPE   C3B 6814   6.555   3.128   3.903 -0.0370  0.1793  0.3233
  610POPE   C4B 6815   6.513   2.794   4.188 -0.1463 -0.0707 -0.2613
  611POPC   NC3 6816  11.779   6.294   2.380 -0.0076  0.0526 -0.0302
  611POPC   PO4 6817  12.222   6.071   2.360  0.2742 -0.0351  0.1485
  611POPC   GL1 6818  12.211   6.151   2.721 -0.0814 -0.3127  0.0200
  611POPC   GL2 6819  12.279   5.986   2.987 -0.0914 -0.0027 -0.0361
  611POPC   C1A 6820  12.268   6.545   3.049 -0.3143  0.0076  0.1604
  611POPC   D2A 6821  12.268   6.562   3.483 -0.2576 -0.3779  0.1099
  611POPC   C3A 6822  12.248   6.977   3.580 -0.0513  0.3181  0.0449
  611POPC   C4A 6823  12.234   7.163   3.896 -0.1784 -0.0089  0.1888
  611POPC   C1B 6824  12.181   6.008   3.477  0.0472  0.2744 -0.2422
  611POPC   C2B 6825  11.816   5.781   3.764  0.0538 -0.2299  0.1742
  611POPC   C3B 6826  11.565   5.529   3.980  0.0457  0.1396  0.0301
  611POPC   C4B 6827  11.482   5.445   4.343 -0.1178 -0.3641 -0.0347
  612CHOL   ROH 6828   5.764   5.627   2.787  0.0382 -0.1594  0.0063
  612CHOL    R1 6829   5.808   5.591   3.064 -0.0630 -0.1143  0.0289
  612CHOL    R2 6830   5.742   5.356   3.196  0.0100 -0.1433  0.0174
  612CHOL    R3 6831   6.003   5.365   3.273 -0.0277  0.0092  0.1296
  612CHOL    R4 6832   5.862   5.247   3.501 -0.0829  0.1306  0.1550
  612CHOL    R5 6833   5.994   5.420   3.506 -0.1494  0.1817  0.0848
  612CHOL    C1 6834   6.176   5.192   3.751 -0.1723  0.4334  0.3406
  612CHOL    C2 6835   6.353   5.285   4.026  0.3062 -0.0303 -0.0857
  613CHOL   ROH 6836   5.357   3.449   2.696  0.1079  0.0737  0.0908
  613CHOL    R1 6837   5.528   3.570   2.887  0.0977 -0.0093  0.1521
  613CHOL    R2 6838   5.480   3.820   2.993  0.1599 -0.0035  0.1634
  613CHOL    R3 6839   5.499   3.689   3.230  0.0442 -0.0337  0.1569
  613CHOL    R4 6840   5.532   3.972   3.299 -0.1725 -0.0221  0.2337
  613CHOL    R5 6841   5.667   3.808   3.351 -0.1187  0.0440  0.3139
  613CHOL    C1 6842   5.581   3.936   3.700 -0.4747 -0.0613  0.2686
  613CHOL    C2 6843   5.638   3.915   4.058  0.1213 -0.0131  0.0223
  614POPE   NH3 6844  12.665   7.956   2.292 -0.1331 -0.0365  0.1092
  614POPE   PO4 6845  12.269   8.136   2.551 -0.3531  0.2809  0.1168
  614POPE   GL1 6846  12.600   8.241   2.818 -0.0096  0.3605 -0.1070
  614POPE   GL2 6847  12.892   8.213   2.786 -0.0400  0.0006  0.1610
  614POPE   C1A 6848  12.488   8.349   3.235 -0.0313 -0.0581 -0.1956
  614POPE   D2A 6849  12.313   8.518   3.567  0.1966 -0.2844  0.1060
  614POPE   C3A 6850  12.040   8.623   3.760  0.1859 -0.1809 -0.1679
  614POPE   C4A 6851  11.919   8.517   4.150 -0.0187 -0.0508  0.1890
  614POPE   C1B 6852  12.989   8.063   3.122 -0.2140 -0.1067 -0.1271
  614POPE   C2B 6853  12.973   8.163   3.524 -0.0209 -0.1093  0.0199
  614POPE   C3B 6854  12.990   7.976   3.815  0.2636  0.1133 -0.1016
  614POPE   C4B 6855  12.984   7.795   4.343  0.1575 -0.2130  0.1834
  615POPS   CNO 6856  13.640   7.629   1.804  0.4152 -0.0051  0.5501
  615POPS   PO4 6857  13.388   7.338   2.116  0.1760 -0.2844 -0.5886
  615POPS   GL1 6858  13.388   7.523   2.571 -0.0835  0.1215  0.0376
  615POPS   GL2 6859  13.339   7.289   2.876 -0.1662 -0.0318  0.2552
  615POPS   C1A 6860  13.334   7.801   2.934  0.0988 -0.1133  0.0779
  615POPS   D2A 6861  13.445   7.743   3.260 -0.0076 -0.0975 -0.0590
  615POPS   C3A 6862  13.220   7.680   3.472 -0.0213  0.0682  0.1309
  615POPS   C4A 6863  12.793   7.527   3.581 -0.0698  0.0318 -0.1214
  615POPS   C1B 6864  13.545   7.236   3.215  0.1277 -0.0388  0.0853
  615POPS   C2B 6865  13.735   7.425   3.601  0.4209  0.3323 -0.1721
  615POPS   C3B 6866  13.567   7.828   3.752  0.2341 -0.1387 -0.3930
  615POPS   C4B 6867  13.846   8.244   3.897  0.0256  0.3279 -0.3165
  616CHOL   ROH 6868  10.157  13.215   2.826 -0.1135 -0.1196 -0.1209
  616CHOL    R1 6869  10.060  13.236   3.091 -0.0538 -0.0723 -0.1015
  616CHOL    R2 6870   9.910  13.038   3.211 -0.1920  0.0279 -0.0946
  616CHOL    R3 6871  10.102  13.053   3.403 -0.1430 -0.1404 -0.1313
  616CHOL    R4 6872   9.849  13.036   3.551 -0.1283  0.0790 -0.0834
  616CHOL    R5 6873  10.003  13.188   3.574  0.0082 -0.0565 -0.1118
  616CHOL    C1 6874   9.993  13.048   3.929 -0.0452 -0.0492 -0.1114
  616CHOL    C2 6875   9.773  13.099   4.260  0.0117  0.2051 -0.0750
  617POPE   NH3 6876   4.487  10.248   2.391 -0.0601  0.0491  0.0606
  617POPE   PO4 6877   4.713  10.004   2.642 -0.1079 -0.3662 -0.0322
  617POPE   GL1 6878   4.821   9.917   2.975  0.2761  0.2024  0.1915
  617POPE   GL2 6879   5.121   9.720   3.063 -0.0959 -0.0816 -0.0637
  617POPE   C1A 6880   4.693  10.076   3.395 -0.1828  0.2319 -0.1854
  617POPE   D2A 6881   4.902  10.263   3.684 -0.3795 -0.1721 -0.0361
  617POPE   C3A 6882   4.710  10.448   4.090  0.3217  0.0706 -0.0189
  617POPE   C4A 6883   4.520  10.846   4.177  0.0093 -0.1274  0.1635
  617POPE   C1B 6884   5.220   9.742   3.490  0.1213 -0.3383 -0.0608
  617POPE   C2B 6885   5.433   9.654   3.809 -0.1341  0.0794 -0.0724
  617POPE   C3B 6886   5.768   9.758   3.976  0.3243  0.2944  0.0118
  617POPE   C4B 6887   6.165   9.860   4.271  0.1683 -0.1460 -0.1367
  618POPC   NC3 6888   4.301   4.497   2.062  0.3727 -0.0416  0.2127
  618POPC   PO4 6889   4.348   4.912   2.086 -0.2928 -0.0149 -0.2147
  618POPC   GL1 6890   4.329   4.858   2.544 -0.0834 -0.4279  0.0023
  618POPC   GL2 6891   4.452   5.091   2.827 -0.1435  0.1690  0.0359
  618POPC   C1A 6892   4.186   4.693   2.886 -0.2798  0.0171  0.1178
  618POPC   D2A 6893   4.217   4.460   3.173  0.3227 -0.1964 -0.3576
  618POPC   C3A 6894   4.359   4.420   3.564 -0.2437 -0.1087 -0.4268
  618POPC   C4A 6895   4.293   4.154   3.931 -0.2313  0.2716 -0.0400
  618POPC   C1B 6896   4.481   4.922   3.271  0.0567  0.1446 -0.0914
  618POPC   C2B 6897   4.614   4.799   3.634 -0.2302  0.2401  0.1510
  618POPC   C3B 6898   4.603   4.479   4.091 -0.0733  0.0144 -0.0263
  618POPC   C4B 6899   4.680   4.710   4.406 -0.1968 -0.3737 -0.2543
  619POPC   NC3 6900   5.618   4.018   1.885 -0.1683  0.2769  0.0263
  619POPC   PO4 6901   5.560   3.641   2.234 -0.1652  0.0888  0.0842
  619POPC   GL1 6902   5.752   3.702   2.465  0.1035  0.1528  0.1889
  619POPC   GL2 6903   6.047   3.624   2.529 -0.1175  0.4226  0.0605
  619POPC   C1A 6904   5.846   3.993   2.775 -0.2648 -0.2248  0.1026
  619POPC   D2A 6905   5.912   4.360   3.140  0.0436  0.0150  0.0909
  619POPC   C3A 6906   5.868   4.370   3.552 -0.0243 -0.0714 -0.0440
  619POPC   C4A 6907   5.966   4.370   4.000  0.0915  0.0473  0.3446
  619POPC   C1B 6908   5.980   3.419   2.917 -0.1294 -0.3637 -0.1583
  619POPC   C2B 6909   5.859   3.324   3.197 -0.0534  0.1905  0.0038
  619POPC   C3B 6910   5.812   3.438   3.622 -0.2546  0.0442 -0.1851
  619POPC   C4B 6911   5.697   3.382   4.125 -0.1097 -0.3061  0.3164
  620CHOL   ROH 6912  11.742  12.022   2.987 -0.4314  0.1794 -0.0288
  620CHOL    R1 6913  11.626  12.046   3.244 -0.1401  0.2044  0.1026
  620CHOL    R2 6914  11.740  11.935   3.469  0.0342  0.1004 -0.0480
  620CHOL    R3 6915  11.721  12.188   3.565  0.2875  0.0917  0.0361
  620CHOL    R4 6916  11.745  12.019   3.804 -0.4017 -0.1021  0.0176
  620CHOL    R5 6917  11.589  12.167   3.764 -0.1078  0.1902 -0.1906
  620CHOL    C1 6918  11.731  12.307   4.089 -0.4178 -0.2283  0.1348
  620CHOL    C2 6919  12.072  12.258   4.339 -0.0785  0.1843 -0.0790
  621POSM   NC3 6920  12.212   9.710   1.662 -0.1581  0.4564  0.2388
  621POSM   PO4 6921  12.535   9.786   2.040  0.0355  0.2335  0.1026
  621POSM   AM1 6922  12.552   9.523   2.443  0.0604  0.1281  0.0667
  621POSM   AM2 6923  12.335   9.665   2.504  0.0007 -0.2494  0.0267
  621POSM   T1A 6924  12.761   9.320   2.746 -0.1254 -0.1212 -0.1410
  621POSM   C2A 6925  12.735   9.229   3.192 -0.2164  0.0677  0.1392
  621POSM   C3A 6926  12.645   9.123   3.671  0.0568 -0.0839 -0.1099
  621POSM   C1B 6927  12.324   9.867   2.790  0.2006 -0.1511  0.0735
  621POSM   D2B 6928  12.597   9.706   3.074 -0.1846  0.1456  0.0073
  621POSM   C3B 6929  12.476   9.819   3.560  0.3163  0.1463 -0.1920
  621POSM   C4B 6930  12.426   9.555   3.885  0.3011 -0.1406 -0.0385
  622POPC   NC3 6931  10.309  13.227   1.934  0.3134 -0.0347 -0.0267
  622POPC   PO4 6932  10.122  12.970   2.163  0.1594  0.1254 -0.1964
  622POPC   GL1 6933   9.915  12.773   2.534  0.0463 -0.5190  0.3794
  622POPC   GL2 6934   9.838  12.484   2.466  0.0731 -0.0209 -0.1751
  622POPC   C1A 6935   9.678  12.871   2.829  0.2135  0.2833 -0.1803
  622POPC   D2A 6936   9.487  12.765   3.271  0.2271 -0.0504  0.0868
  622POPC   C3A 6937   9.056  12.851   3.359  0.0295  0.0995  0.2283
  622POPC   C4A 6938   8.973  12.702   3.651  0.0681  0.2144 -0.1055
  622POPC   C1B 6939   9.738  12.337   2.825 -0.0198  0.1320  0.1171
  622POPC   C2B 6940   9.564  12.234   3.263  0.2734 -0.0329 -0.0195
  622POPC   C3B 6941   9.284  12.178   3.574 -0.3088 -0.0018 -0.1482
  622POPC   C4B 6942   9.257  12.264   4.040 -0.1320  0.0091  0.1823
  623POPS   CNO 6943  11.826  12.513   2.256 -0.2473 -0.1191  0.0239
  623POPS   PO4 6944  11.756  12.308   2.587 -0.4134  0.0411  0.0786
  623POPS   GL1 6945  11.545  12.493   3.053 -0.1590 -0.1248  0.0730
  623POPS   GL2 6946  11.443  12.806   3.030 -0.0605 -0.0533  0.1563
  623POPS   C1A 6947  11.225  12.438   3.325  0.0775  0.2174  0.0185
  623POPS   D2A 6948  10.932  12.372   3.523 -0.3860 -0.1494  0.0954
  623POPS   C3A 6949  10.749  12.676   3.681 -0.3598 -0.2918  0.0145
  623POPS   C4A 6950  10.531  13.044   3.769 -0.1077  0.0463  0.1276
  623POPS   C1B 6951  11.376  12.871   3.540  0.1451 -0.2886  0.2413
  623POPS   C2B 6952  11.274  12.584   3.964  0.3897  0.0701  0.0528
  623POPS   C3B 6953  11.158  12.227   4.057  0.0355  0.1144  0.0935
  623POPS   C4B 6954  10.846  11.873   3.912  0.1059 -0.4906 -0.2241
  624POPE   NH3 6955  12.807   7.079   2.207 -0.0885 -0.1272 -0.0040
  624POPE   PO4 6956  12.925   7.502   2.253  0.0940 -0.0600 -0.0871
  624POPE   GL1 6957  12.887   7.739   2.734  0.0135  0.2224 -0.3289
  624POPE   GL2 6958  12.538   7.727   2.806  0.3621  0.0976  0.2875
  624POPE   C1A 6959  12.930   7.524   3.078 -0.0746  0.1070  0.3176
  624POPE   D2A 6960  13.102   7.159   3.277  0.0901 -0.0369  0.0477
  624POPE   C3A 6961  13.268   7.097   3.688 -0.1868 -0.2068 -0.1083
  624POPE   C4A 6962  13.179   7.486   3.901  0.1257  0.1841 -0.4373
  624POPE   C1B 6963  12.553   7.873   3.229  0.0359  0.1119 -0.0615
  624POPE   C2B 6964  12.441   7.892   3.665  0.1004 -0.1221 -0.1138
  624POPE   C3B 6965  12.339   8.114   4.098  0.0616 -0.1089  0.0715
  624POPE   C4B 6966  12.460   7.989   4.491 -0.3231  0.4367  0.1819
  625POPC   NC3 6967  11.223   4.254   2.344 -0.1688 -0.3472 -0.1922
  625POPC   PO4 6968  11.516   3.910   2.580  0.0441 -0.0686  0.0623
  625POPC   GL1 6969  11.549   4.264   2.828  0.0036  0.1202  0.1608
  625POPC   GL2 6970  11.402   4.238   3.177 -0.3063  0.3186 -0.1925
  625POPC   C1A 6971  11.702   4.633   3.086  0.0510  0.0394  0.1192
  625POPC   D2A 6972  11.670   4.956   3.310 -0.0230  0.1936  0.0324
  625POPC   C3A 6973  11.542   5.008   3.727  0.1199 -0.0429  0.1161
  625POPC   C4A 6974  11.535   4.933   4.158 -0.1218 -0.0882  0.1590
  625POPC   C1B 6975  11.121   4.606   3.296  0.2045  0.1884  0.0160
  625POPC   C2B 6976  10.834   4.950   3.607  0.0742 -0.0827  0.2191
  625POPC   C3B 6977  10.864   5.110   4.049 -0.0814 -0.1074  0.0946
  625POPC   C4B 6978  11.132   5.125   4.468 -0.1706 -0.2081  0.1818
  626POSM   NC3 6979   6.673  11.988   2.026  0.0847 -0.4183  0.2284
  626POSM   PO4 6980   6.730  11.521   1.921  0.2174  0.0964 -0.0003
  626POSM   AM1 6981   6.523  11.662   2.319 -0.1193  0.4991 -0.0292
  626POSM   AM2 6982   6.570  11.879   2.470  0.2757 -0.2910 -0.0068
  626POSM   T1A 6983   6.268  11.600   2.725  0.0139  0.1353 -0.1280
  626POSM   C2A 6984   5.953  11.199   2.818 -0.0291 -0.0349  0.1735
  626POSM   C3A 6985   5.691  10.857   2.988 -0.0443  0.0282 -0.0630
  626POSM   C1B 6986   6.595  11.909   2.903 -0.0862 -0.2295  0.1449
  626POSM   D2B 6987   6.625  12.174   3.303  0.3236  0.2345 -0.1685
  626POSM   C3B 6988   7.013  12.075   3.687 -0.1056 -0.1513 -0.0343
  626POSM   C4B 6989   7.182  12.366   3.952 -0.1591 -0.3257  0.0969
  627POPS   CNO 6990   6.783  11.196   2.368 -0.1022 -0.0339 -0.1158
  627POPS   PO4 6991   7.026  11.558   2.363 -0.0355 -0.4098  0.2364
  627POPS   GL1 6992   7.117  11.768   2.679  0.1905  0.0884 -0.2455
  627POPS   GL2 6993   7.141  11.986   2.850 -0.1768  0.2676  0.1172
  627POPS   C1A 6994   7.408  11.537   3.010 -0.1650 -0.1963 -0.1246
  627POPS   D2A 6995   7.565  11.569   3.360  0.4121  0.1053  0.4103
  627POPS   C3A 6996   7.522  11.345   3.814  0.1632  0.1021 -0.0736
  627POPS   C4A 6997   7.736  11.082   4.170 -0.0518 -0.0028 -0.0734
  627POPS   C1B 6998   7.167  12.051   3.242  0.0548  0.2247  0.0193
  627POPS   C2B 6999   7.004  12.419   3.364  0.0953 -0.0278 -0.3765
  627POPS   C3B 7000   6.745  12.523   3.727 -0.0702  0.0150  0.1330
  627POPS   C4B 7001   6.426  12.788   3.883 -0.2930 -0.0886 -0.1461
  628POSM   NC3 7002   4.361   7.862   2.244 -0.2059 -0.0426  0.2278
  628POSM   PO4 7003   4.271   8.242   2.299  0.0694  0.1284 -0.1785
  628POSM   AM1 7004   4.427   8.146   2.642 -0.1587  0.1778 -0.1050
  628POSM   AM2 7005   4.258   8.008   2.745 -0.1848 -0.1279 -0.1334
  628POSM   T1A 7006   4.637   7.919   3.092  0.1543  0.1160  0.0590
  628POSM   C2A 7007   4.520   7.971   3.606 -0.1302 -0.2200 -0.0961
  628POSM   C3A 7008   4.289   7.948   3.990 -0.0037 -0.2025 -0.1905
  628POSM   C1B 7009   3.978   8.104   3.003  0.2509  0.2763  0.0980
  628POSM   D2B 7010   3.680   7.892   3.121  0.2916 -0.1247  0.3088
  628POSM   C3B 7011   3.532   7.740   3.481 -0.0405 -0.0204 -0.1319
  628POSM   C4B 7012   3.384   7.773   3.874  0.1343  0.0695 -0.0948
  629POPS   CNO 7013  12.151   5.550   2.220  0.2218  0.2850 -0.1955
  629POPS   PO4 7014  12.055   5.127   2.397 -0.0926  0.1428 -0.1661
  629POPS   GL1 7015  12.078   4.917   2.841  0.1355  0.0120  0.1041
  629POPS   GL2 7016  12.012   5.153   2.968  0.2067 -0.2406  0.4381
  629POPS   C1A 7017  12.181   4.673   3.245  0.1289  0.1719 -0.0968
  629POPS   D2A 7018  12.061   4.796   3.626  0.1678  0.1624 -0.0784
  629POPS   C3A 7019  12.040   4.538   3.978 -0.0741  0.4063  0.1420
  629POPS   C4A 7020  12.370   4.233   4.197 -0.1326 -0.0318  0.0591
  629POPS   C1B 7021  12.127   5.213   3.380 -0.0042 -0.0322  0.0645
  629POPS   C2B 7022  11.993   5.293   3.755  0.2057 -0.0494 -0.0544
  629POPS   C3B 7023  11.993   5.342   4.231 -0.0041 -0.0151 -0.1581
  629POPS   C4B 7024  12.340   5.317   4.554 -0.1272  0.0854 -0.0565
  630POSM   NC3 7025   9.878   4.349   2.194 -0.1472 -0.1749  0.0086
  630POSM   PO4 7026  10.354   4.265   2.074  0.1560  0.2162  0.1838
  630POSM   AM1 7027  10.323   4.275   2.529 -0.1405 -0.1152 -0.1317
  630POSM   AM2 7028  10.687   4.196   2.543 -0.0887  0.0062 -0.0013
  630POSM   T1A 7029  10.077   4.122   2.835  0.0297 -0.0467 -0.3560
  630POSM   C2A 7030   9.909   3.963   3.239  0.3625 -0.1754 -0.0673
  630POSM   C3A 7031   9.969   3.823   3.527  0.2892  0.0851 -0.2125
  630POSM   C1B 7032  10.721   4.412   2.975 -0.1660  0.0126  0.1330
  630POSM   D2B 7033  10.643   4.473   3.482  0.4497 -0.1745 -0.0909
  630POSM   C3B 7034  10.272   4.639   3.571 -0.1207  0.2580  0.2539
  630POSM   C4B 7035   9.906   4.884   3.681 -0.2288  0.1400 -0.0226
  631POPS   CNO 7036   4.048   7.335   2.401  0.0228  0.0022  0.1192
  631POPS   PO4 7037   3.813   7.057   2.264  0.3607  0.0148 -0.2578
  631POPS   GL1 7038   3.799   6.943   2.661 -0.2829  0.0425  0.0949
  631POPS   GL2 7039   3.687   6.698   2.768  0.1397 -0.0175 -0.1403
  631POPS   C1A 7040   3.734   7.184   2.947  0.0780 -0.0768 -0.0881
  631POPS   D2A 7041   3.510   7.257   3.270 -0.0460  0.1546 -0.0832
  631POPS   C3A 7042   3.220   7.583   3.162  0.3174 -0.2017  0.1490
  631POPS   C4A 7043   3.079   7.694   2.714  0.0693  0.0148 -0.1540
  631POPS   C1B 7044   3.910   6.862   3.224 -0.1422 -0.3543  0.0802
  631POPS   C2B 7045   3.779   6.910   3.547  0.0874  0.1430 -0.0028
  631POPS   C3B 7046   3.975   7.042   3.817  0.5776 -0.0098 -0.0693
  631POPS   C4B 7047   3.809   7.248   4.150  0.0354 -0.2349 -0.0404
  632POSM   NC3 7048   5.455  10.615   1.613  0.0799  0.2394 -0.0593
  632POSM   PO4 7049   5.740  10.311   1.735  0.0086 -0.0280 -0.0591
  632POSM   AM1 7050   5.704  10.564   2.081 -0.1888 -0.2722 -0.2869
  632POSM   AM2 7051   5.851  10.878   2.266  0.0864  0.1723  0.0570
  632POSM   T1A 7052   5.567  10.487   2.513 -0.1179 -0.0908 -0.3450
  632POSM   C2A 7053   5.625  10.381   2.859  0.1175 -0.0567 -0.1773
  632POSM   C3A 7054   5.661  10.464   3.250 -0.2636  0.3498 -0.3980
  632POSM   C1B 7055   5.552  11.008   2.545  0.0739  0.1102 -0.1101
  632POSM   D2B 7056   5.189  10.845   2.514  0.0361  0.3273 -0.1801
  632POSM   C3B 7057   5.085  10.524   2.809 -0.0391 -0.1082  0.0089
  632POSM   C4B 7058   5.156  10.266   3.192  0.1139 -0.5058 -0.0112
  633POSM   NC3 7059   3.574   7.473   2.178 -0.2709 -0.1276 -0.1392
  633POSM   PO4 7060   3.872   7.885   2.084  0.2007  0.0079 -0.1101
  633POSM   AM1 7061   3.788   8.174   2.396  0.0419 -0.2504  0.0373
  633POSM   AM2 7062   3.964   8.508   2.541 -0.4465 -0.3071 -0.1335
  633POSM   T1A 7063   3.564   8.275   2.789  0.1445 -0.0052 -0.1214
  633POSM   C2A 7064   3.563   8.374   3.220  0.4353  0.1975  0.0205
  633POSM   C3A 7065   3.809   8.428   3.467  0.1816  0.4749  0.1718
  633POSM   C1B 7066   3.949   8.686   2.999 -0.0022  0.3258 -0.1814
  633POSM   D2B 7067   4.148   8.910   3.294 -0.3836  0.2317 -0.1610
  633POSM   C3B 7068   3.893   8.910   3.497  0.4568  0.0732 -0.3156
  633POSM   C4B 7069   3.584   8.736   3.854 -0.5329  0.0970  0.0623
  634POPE   NH3 7070   8.920  13.337   2.159 -0.0332  0.1451  0.1972
  634POPE   PO4 7071   9.155  12.981   2.183 -0.0049  0.3124 -0.1053
  634POPE   GL1 7072   9.130  13.126   2.602  0.0436 -0.0204 -0.1065
  634POPE   GL2 7073   8.839  13.002   2.615 -0.2420 -0.0347  0.2431
  634POPE   C1A 7074   9.289  13.181   2.975 -0.2145  0.2611 -0.0701
  634POPE   D2A 7075   9.425  13.270   3.357 -0.1370 -0.0431 -0.2821
  634POPE   C3A 7076   9.323  13.571   3.481  0.2769  0.0605 -0.0336
  634POPE   C4A 7077   9.123  13.937   3.533 -0.2157 -0.0847  0.2270
  634POPE   C1B 7078   8.668  13.106   3.047 -0.0804  0.1819  0.1212
  634POPE   C2B 7079   8.498  13.194   3.434 -0.2725  0.0171 -0.0831
  634POPE   C3B 7080   8.282  13.373   3.743 -0.1554  0.2779 -0.1515
  634POPE   C4B 7081   8.234  13.208   4.169  0.3048 -0.1769  0.0641
  635POPE   NH3 7082   4.331   5.957   2.649  0.0676 -0.0638  0.1787
  635POPE   PO4 7083   4.549   5.628   2.625 -0.0273 -0.0922  0.3212
  635POPE   GL1 7084   4.345   5.642   3.028  0.2027 -0.0657  0.1878
  635POPE   GL2 7085   3.979   5.782   2.967  0.0488 -0.1657 -0.2283
  635POPE   C1A 7086   4.425   5.379   3.496 -0.0839  0.2803 -0.1517
  635POPE   D2A 7087   4.437   5.674   3.881  0.2674 -0.1539 -0.0661
  635POPE   C3A 7088   4.106   5.795   4.036 -0.2210 -0.2330 -0.0628
  635POPE   C4A 7089   3.919   5.672   4.475 -0.0617  0.0407 -0.1715
  635POPE   C1B 7090   3.769   5.539   3.240 -0.1783 -0.1072  0.1555
  635POPE   C2B 7091   3.620   5.557   3.694  0.2400  0.4463  0.1103
  635POPE   C3B 7092   3.670   5.387   4.077 -0.0034 -0.0487 -0.0168
  635POPE   C4B 7093   3.642   5.012   4.400  0.0364  0.0630  0.0444
  636POPE   NH3 7094  12.600  11.203   2.524 -0.4319  0.0344  0.1186
  636POPE   PO4 7095  13.011  11.023   2.348  0.1568  0.1419 -0.0384
  636POPE   GL1 7096  12.778  10.737   2.642  0.0396 -0.1913  0.1275
  636POPE   GL2 7097  12.450  10.653   2.628 -0.0273  0.3871 -0.1096
  636POPE   C1A 7098  12.702  10.681   3.075 -0.2717 -0.0639  0.0171
  636POPE   D2A 7099  12.751  10.479   3.500 -0.2138 -0.4197  0.3599
  636POPE   C3A 7100  12.532  10.648   3.785 -0.1389 -0.0186 -0.0800
  636POPE   C4A 7101  12.543  10.700   4.180 -0.3804 -0.0763  0.1485
  636POPE   C1B 7102  12.224  10.332   2.747 -0.0747  0.4428  0.1200
  636POPE   C2B 7103  11.956  10.146   3.057 -0.0297 -0.0663  0.0283
  636POPE   C3B 7104  11.676   9.896   3.368 -0.2128  0.2622 -0.0557
  636POPE   C4B 7105  11.619   9.905   3.786  0.1929 -0.0406 -0.1611
  637POPC   NC3 7106   6.266   3.320   1.816 -0.1026  0.3432 -0.0533
  637POPC   PO4 7107   6.264   3.204   2.266  0.1018  0.1358 -0.1723
  637POPC   GL1 7108   6.489   3.292   2.699  0.0365 -0.0750  0.1887
  637POPC   GL2 7109   6.638   3.004   2.816 -0.0075  0.2416 -0.3801
  637POPC   C1A 7110   6.519   3.478   3.041  0.0669  0.0476 -0.0288
  637POPC   D2A 7111   6.310   3.772   2.964  0.0534  0.1230 -0.3006
  637POPC   C3A 7112   6.159   3.937   3.361  0.0239  0.4006  0.1126
  637POPC   C4A 7113   6.075   3.911   3.769  0.0033  0.0036 -0.1911
  637POPC   C1B 7114   6.300   3.075   3.247 -0.0567  0.1386  0.0967
  637POPC   C2B 7115   6.387   3.489   3.505  0.3151 -0.2592 -0.0977
  637POPC   C3B 7116   6.492   3.747   3.966  0.1519  0.1311 -0.2819
  637POPC   C4B 7117   6.668   3.612   4.332  0.1067  0.2320 -0.0269
  638POPE   NH3 7118  12.243  12.749   2.351  0.0705  0.1453 -0.0207
  638POPE   PO4 7119  12.281  12.358   2.487 -0.0015 -0.1030 -0.1492
  638POPE   GL1 7120  12.352  12.245   2.832 -0.2955  0.1939  0.1097
  638POPE   GL2 7121  12.129  12.343   2.937  0.1468 -0.1038 -0.2478
  638POPE   C1A 7122  12.636  12.137   3.192  0.2035 -0.1327 -0.1311
  638POPE   D2A 7123  12.683  12.067   3.640  0.1199  0.1611  0.0634
  638POPE   C3A 7124  12.684  12.395   3.978 -0.1544  0.1362  0.0912
  638POPE   C4A 7125  12.592  12.598   4.332  0.0627 -0.0651  0.1709
  638POPE   C1B 7126  12.113  12.378   3.366  0.1581  0.1416  0.3848
  638POPE   C2B 7127  12.145  12.298   3.823  0.0792  0.1758 -0.0061
  638POPE   C3B 7128  12.321  11.999   4.041 -0.1244 -0.3279 -0.1902
  638POPE   C4B 7129  12.580  12.090   4.370 -0.1241 -0.3497  0.1845
  639POPS   CNO 7130   6.991  12.128   2.353 -0.1597  0.0475  0.3202
  639POPS   PO4 7131   7.487  12.233   2.271 -0.1893  0.0598  0.1532
  639POPS   GL1 7132   7.605  12.133   2.643  0.1876  0.0017 -0.0725
  639POPS   GL2 7133   7.615  11.841   2.692  0.1747  0.0164 -0.1505
  639POPS   C1A 7134   7.651  12.056   3.118 -0.1686 -0.0314 -0.1294
  639POPS   D2A 7135   7.975  11.959   3.494 -0.0458 -0.2718  0.1761
  639POPS   C3A 7136   7.962  11.953   3.922  0.2869 -0.2119 -0.0041
  639POPS   C4A 7137   8.053  12.107   4.397  0.1409  0.0159  0.0903
  639POPS   C1B 7138   7.908  11.592   2.880 -0.0090 -0.1531  0.1709
  639POPS   C2B 7139   8.063  11.446   3.306 -0.1978 -0.0255  0.1298
  639POPS   C3B 7140   8.036  11.396   3.764 -0.0247 -0.1482  0.0161
  639POPS   C4B 7141   7.984  11.560   4.233  0.1489 -0.0302  0.1093
  640POPC   NC3 7142   8.176   3.446   2.267  0.0101  0.2146  0.0209
  640POPC   PO4 7143   8.728   3.458   2.316 -0.2029  0.2568 -0.0727
  640POPC   GL1 7144   8.637   3.591   2.649 -0.3317  0.4254  0.1444
  640POPC   GL2 7145   8.270   3.738   2.718  0.0296 -0.1626  0.2368
  640POPC   C1A 7146   8.641   3.627   3.096 -0.0743  0.2435 -0.0466
  640POPC   D2A 7147   8.822   3.532   3.493 -0.0872  0.2148  0.0838
  640POPC   C3A 7148   8.948   3.214   3.659 -0.0020  0.1003  0.1339
  640POPC   C4A 7149   8.992   2.876   3.930 -0.3445  0.0049  0.0983
  640POPC   C1B 7150   8.235   4.182   3.037 -0.1931 -0.0442  0.0615
  640POPC   C2B 7151   8.340   4.389   3.393  0.0192 -0.2711 -0.0232
  640POPC   C3B 7152   8.700   4.642   3.644  0.0928 -0.1225  0.0572
  640POPC   C4B 7153   9.008   4.777   3.901 -0.0483 -0.2839  0.3529
  641POPE   NH3 7154  13.328   6.817   2.135 -0.3648 -0.2668 -0.0654
  641POPE   PO4 7155  13.224   6.952   2.506 -0.1776 -0.2189 -0.0934
  641POPE   GL1 7156  13.113   6.785   2.927 -0.4324 -0.3649  0.2603
  641POPE   GL2 7157  13.458   6.601   3.034 -0.0437  0.0736 -0.0725
  641POPE   C1A 7158  13.104   6.628   3.417  0.2454 -0.1354  0.0859
  641POPE   D2A 7159  13.225   6.658   3.858  0.2690  0.0791  0.0827
  641POPE   C3A 7160  13.176   7.015   4.174  0.1092 -0.2392 -0.0356
  641POPE   C4A 7161  13.078   7.338   4.370 -0.1683  0.0805 -0.3722
  641POPE   C1B 7162  13.664   6.827   3.333  0.1369 -0.0748  0.0244
  641POPE   C2B 7163  13.747   6.956   3.743 -0.6781 -0.1534 -0.3663
  641POPE   C3B 7164  13.713   6.845   4.095 -0.0691  0.2166  0.1819
  641POPE   C4B 7165  13.383   6.573   4.382  0.4728 -0.2338 -0.1527
  642POPS   CNO 7166   4.178   6.664   1.924  0.0096  0.0342  0.1521
  642POPS   PO4 7167   4.291   6.303   2.277  0.1325 -0.3370  0.1081
  642POPS   GL1 7168   4.098   6.384   2.678 -0.1487 -0.3120 -0.3412
  642POPS   GL2 7169   3.879   6.162   2.609  0.2167 -0.0122 -0.2409
  642POPS   C1A 7170   4.195   6.388   3.150 -0.0732 -0.1867 -0.2024
  642POPS   D2A 7171   3.941   6.458   3.482  0.2135  0.0933 -0.1837
  642POPS   C3A 7172   3.902   6.435   3.949  0.0893  0.0991  0.2773
  642POPS   C4A 7173   3.891   6.684   4.364 -0.0588 -0.0830  0.1699
  642POPS   C1B 7174   3.723   6.302   3.039  0.3092 -0.0371 -0.0504
  642POPS   C2B 7175   3.436   6.464   3.480 -0.0749  0.0921  0.1299
  642POPS   C3B 7176   3.292   6.418   3.809  0.0754 -0.1091 -0.0105
  642POPS   C4B 7177   3.031   6.142   4.156  0.0514 -0.2992  0.2133
  643POPE   NH3 7178  12.106   5.561   2.704 -0.1336  0.3889 -0.0746
  643POPE   PO4 7179  11.736   5.819   2.462 -0.2346  0.0669  0.1309
  643POPE   GL1 7180  11.763   5.948   2.849 -0.0494  0.1116  0.1665
  643POPE   GL2 7181  11.913   5.691   3.157  0.0596  0.0899 -0.1765
  643POPE   C1A 7182  11.436   5.877   3.166  0.0409 -0.2389  0.2685
  643POPE   D2A 7183  11.369   5.789   3.660 -0.0691 -0.0849  0.1017
  643POPE   C3A 7184  11.242   6.071   3.907  0.1854  0.0130  0.1876
  643POPE   C4A 7185  11.013   6.215   4.160  0.0651 -0.1164  0.3965
  643POPE   C1B 7186  11.482   5.411   3.262  0.0590  0.0525  0.0987
  643POPE   C2B 7187  11.085   5.094   3.214 -0.1287 -0.0537 -0.2054
  643POPE   C3B 7188  10.590   4.934   3.024 -0.3327  0.0945  0.2260
  643POPE   C4B 7189  10.298   4.684   2.949 -0.0452 -0.0557 -0.1861
  644POPC   NC3 7190   3.986   9.430   2.149 -0.1100 -0.1215  0.2703
  644POPC   PO4 7191   4.408   9.267   2.181  0.0358  0.2718 -0.0745
  644POPC   GL1 7192   4.175   9.204   2.514  0.0681 -0.0887  0.1239
  644POPC   GL2 7193   4.314   9.062   2.637  0.4638  0.2328  0.0551
  644POPC   C1A 7194   4.227   9.550   2.953 -0.2929 -0.0470 -0.1564
  644POPC   D2A 7195   4.217   9.916   3.205  0.1140  0.2709 -0.1010
  644POPC   C3A 7196   4.285   9.800   3.561 -0.0664  0.2334 -0.2074
  644POPC   C4A 7197   4.058   9.727   3.998  0.0819 -0.5351 -0.0553
  644POPC   C1B 7198   4.532   9.198   3.077  0.0233  0.4368  0.1855
  644POPC   C2B 7199   4.671   9.558   3.248  0.2251  0.1095 -0.1424
  644POPC   C3B 7200   4.700   9.586   3.719  0.1000 -0.0733  0.0854
  644POPC   C4B 7201   4.630   9.502   4.105  0.0570  0.0331 -0.1043
  645POSM   NC3 7202   4.379  11.097   2.394 -0.1138 -0.1286  0.1699
  645POSM   PO4 7203   4.602  11.468   2.235  0.1306 -0.2342 -0.0331
  645POSM   AM1 7204   4.812  11.260   2.638 -0.1477 -0.0497  0.0284
  645POSM   AM2 7205   4.665  11.224   2.845  0.3280  0.1144 -0.1687
  645POSM   T1A 7206   5.085  11.046   2.980  0.1121 -0.0767 -0.3037
  645POSM   C2A 7207   5.368  10.945   3.330 -0.0270  0.0153 -0.1184
  645POSM   C3A 7208   5.548  10.603   3.696 -0.0682  0.2890 -0.0973
  645POSM   C1B 7209   4.581  11.203   3.266 -0.0614  0.0028 -0.0470
  645POSM   D2B 7210   4.537  11.201   3.732  0.1473  0.0058  0.1309
  645POSM   C3B 7211   4.722  11.288   4.040  0.1187 -0.0294 -0.1053
  645POSM   C4B 7212   4.821  11.416   4.459 -0.0180  0.1545 -0.0574
  646POSM   NC3 7213   4.524   3.804   1.958  0.0160 -0.0078  0.1806
  646POSM   PO4 7214   4.571   3.355   1.977  0.0207 -0.2913  0.1153
  646POSM   AM1 7215   4.599   3.539   2.442  0.0138 -0.2549  0.0633
  646POSM   AM2 7216   4.776   3.257   2.541  0.0253  0.1375  0.1937
  646POSM   T1A 7217   4.676   3.744   2.859  0.0842  0.0485  0.0080
  646POSM   C2A 7218   4.963   3.914   3.107 -0.0505 -0.0096  0.1417
  646POSM   C3A 7219   5.112   3.879   3.521 -0.0220  0.2011  0.2235
  646POSM   C1B 7220   4.952   3.282   3.033  0.0791  0.2681  0.0929
  646POSM   D2B 7221   4.806   3.495   3.393  0.0466 -0.3752  0.0473
  646POSM   C3B 7222   4.797   3.445   3.797 -0.2408  0.1087 -0.2837
  646POSM   C4B 7223   4.751   3.186   4.124  0.1351 -0.1391  0.0053
  647POPS   CNO 7224  13.178   7.967   2.419  0.2860 -0.1292 -0.0478
  647POPS   PO4 7225  13.066   8.355   2.324  0.0777  0.0798  0.1059
  647POPS   GL1 7226  13.332   8.492   2.571 -0.2408  0.0259  0.1762
  647POPS   GL2 7227  13.504   8.218   2.722  0.0100 -0.1156  0.3040
  647POPS   C1A 7228  13.661   8.649   2.931 -0.0434 -0.0499 -0.0441
  647POPS   D2A 7229  13.599   8.810   3.169  0.0547  0.1286  0.0499
  647POPS   C3A 7230  13.644   8.745   3.624  0.1384  0.2059  0.0364
  647POPS   C4A 7231  13.624   8.930   4.014  0.0212 -0.1891  0.1749
  647POPS   C1B 7232  13.437   8.237   3.105 -0.1581  0.4179 -0.2891
  647POPS   C2B 7233  13.433   8.313   3.637 -0.3819 -0.1370  0.3468
  647POPS   C3B 7234  13.289   8.546   3.896  0.1131  0.1426 -0.1341
  647POPS   C4B 7235  13.046   8.851   4.148  0.0019  0.0259 -0.2682
  648POPE   NH3 7236  11.406  12.672   2.548  0.2303 -0.1084 -0.1725
  648POPE   PO4 7237  11.658  13.001   2.419 -0.1582 -0.1353  0.3363
  648POPE   GL1 7238  11.650  13.308   2.761 -0.0318  0.0976 -0.0797
  648POPE   GL2 7239  11.879  13.587   2.757 -0.1712  0.2600  0.0990
  648POPE   C1A 7240  11.766  13.259   3.139 -0.2781  0.0870  0.2556
  648POPE   D2A 7241  11.485  13.393   3.538 -0.0120  0.0431 -0.1843
  648POPE   C3A 7242  11.610  13.410   3.897  0.1545  0.0141  0.1413
  648POPE   C4A 7243  11.585  13.408   4.242 -0.1478 -0.3397 -0.0540
  648POPE   C1B 7244  11.628  13.709   3.072 -0.2161  0.2930 -0.0131
  648POPE   C2B 7245  11.680  14.001   3.353  0.0096 -0.1256  0.1223
  648POPE   C3B 7246  11.554  13.908   3.780 -0.0304 -0.1764 -0.1529
  648POPE   C4B 7247  11.460  13.992   4.158  0.1719  0.1657 -0.0021
  649POPS   CNO 7248   3.948   5.455   1.993  0.1462 -0.2406  0.1526
  649POPS   PO4 7249   3.859   5.192   2.190 -0.1627  0.2725  0.1303
  649POPS   GL1 7250   3.588   5.325   2.532 -0.1372 -0.0329  0.1240
  649POPS   GL2 7251   3.851   5.278   2.752 -0.0778 -0.1312  0.0933
  649POPS   C1A 7252   3.495   5.610   2.848  0.0695 -0.1183 -0.0292
  649POPS   D2A 7253   3.381   5.920   3.156 -0.0788  0.2266 -0.0865
  649POPS   C3A 7254   3.580   5.983   3.412 -0.1408 -0.1671  0.1905
  649POPS   C4A 7255   4.027   5.926   3.530  0.0425  0.3376  0.1571
  649POPS   C1B 7256   4.033   5.148   3.143 -0.2331  0.0587  0.4195
  649POPS   C2B 7257   3.958   5.209   3.558 -0.2397  0.0373 -0.3473
  649POPS   C3B 7258   4.169   5.219   3.979  0.1097 -0.2011 -0.2692
  649POPS   C4B 7259   4.545   5.132   4.083  0.0642 -0.1397  0.2213
  650CHOL   ROH 7260   4.367   4.386   2.539  0.1636 -0.0029 -0.1140
  650CHOL    R1 7261   4.612   4.400   2.681  0.1126  0.2170 -0.0410
  650CHOL    R2 7262   4.656   4.583   2.885 -0.1529  0.1853  0.0640
  650CHOL    R3 7263   4.718   4.360   3.027  0.0554  0.1839 -0.0296
  650CHOL    R4 7264   4.751   4.579   3.217 -0.1811  0.1123  0.0697
  650CHOL    R5 7265   4.899   4.427   3.169 -0.0310  0.2872  0.0188
  650CHOL    C1 7266   4.865   4.368   3.544 -0.0020  0.0685 -0.0149
  650CHOL    C2 7267   4.777   4.087   3.789  0.2813 -0.0637 -0.0323
  651POPE   NH3 7268   8.374  13.421   2.102  0.1294  0.1480  0.1246
  651POPE   PO4 7269   7.999  13.124   2.105  0.3289 -0.0081  0.0046
  651POPE   GL1 7270   8.053  12.820   2.278 -0.0505  0.0824  0.1670
  651POPE   GL2 7271   7.952  12.955   2.562  0.1082  0.2676  0.1844
  651POPE   C1A 7272   8.383  12.719   2.595 -0.3063  0.2642 -0.0221
  651POPE   D2A 7273   8.623  12.666   2.836 -0.0086 -0.0338 -0.0415
  651POPE   C3A 7274   8.550  12.720   3.339 -0.0109  0.1203  0.0710
  651POPE   C4A 7275   8.543  12.862   3.822 -0.1137  0.3130 -0.1593
  651POPE   C1B 7276   8.122  12.941   3.003  0.1125  0.0743 -0.3101
  651POPE   C2B 7277   8.123  12.924   3.546  0.0362 -0.1784  0.0199
  651POPE   C3B 7278   8.065  12.853   3.938  0.1540 -0.1616  0.2784
  651POPE   C4B 7279   7.708  12.649   4.019 -0.1863  0.0840  0.2092
  652POPE   NH3 7280   5.267   3.216   2.256 -0.0505 -0.0982  0.2724
  652POPE   PO4 7281   5.448   2.839   2.223  0.4347 -0.2153  0.3749
  652POPE   GL1 7282   5.580   2.761   2.650  0.1581 -0.0330  0.0603
  652POPE   GL2 7283   5.242   2.829   2.648  0.3338 -0.1987  0.1087
  652POPE   C1A 7284   5.809   2.768   3.078 -0.1109  0.0705  0.2188
  652POPE   D2A 7285   5.910   2.793   3.396 -0.4567 -0.1768 -0.0311
  652POPE   C3A 7286   6.092   3.039   3.715 -0.2374 -0.0485 -0.0869
  652POPE   C4A 7287   6.035   3.036   4.117 -0.0456  0.0322  0.1316
  652POPE   C1B 7288   5.416   3.113   3.048  0.1654 -0.1164  0.1317
  652POPE   C2B 7289   5.300   3.283   3.399  0.1096  0.0573  0.1946
  652POPE   C3B 7290   5.310   3.485   3.727 -0.1319  0.0658 -0.1475
  652POPE   C4B 7291   5.206   3.716   4.185 -0.0246  0.1711  0.0142
  653CHOL   ROH 7292  13.086  11.091   2.882  0.3881  0.3576 -0.3436
  653CHOL    R1 7293  13.034  11.196   3.140  0.1911  0.1796 -0.3080
  653CHOL    R2 7294  13.235  11.249   3.323  0.0642  0.1621 -0.1570
  653CHOL    R3 7295  13.122  11.496   3.327 -0.0500  0.1086 -0.0758
  653CHOL    R4 7296  13.278  11.482   3.574  0.0072  0.1277 -0.1156
  653CHOL    R5 7297  13.067  11.532   3.557 -0.0179  0.0329 -0.0579
  653CHOL    C1 7298  13.197  11.850   3.724 -0.1331  0.0575 -0.0152
  653CHOL    C2 7299  13.075  12.071   3.979 -0.0008 -0.0080  0.0491
  654POPC   NC3 7300  13.374   9.036   2.059  0.0035  0.0678  0.2351
  654POPC   PO4 7301  13.016   8.897   2.293  0.1341 -0.2273  0.0421
  654POPC   GL1 7302  12.996   8.771   2.669 -0.0265  0.1334  0.0902
  654POPC   GL2 7303  12.718   8.713   2.879  0.1836 -0.2147  0.0224
  654POPC   C1A 7304  13.164   8.610   3.017 -0.0800 -0.4380 -0.0651
  654POPC   D2A 7305  12.909   8.723   3.445 -0.2584 -0.1415 -0.3298
  654POPC   C3A 7306  12.768   8.509   3.856 -0.1955 -0.2761 -0.0971
  654POPC   C4A 7307  12.829   8.367   4.225  0.1515  0.3237 -0.1615
  654POPC   C1B 7308  12.413   8.828   3.155  0.1382 -0.1729  0.1119
  654POPC   C2B 7309  12.231   9.169   3.442  0.0444 -0.1413 -0.1784
  654POPC   C3B 7310  12.208   9.053   3.912  0.2387 -0.0309 -0.0622
  654POPC   C4B 7311  12.457   8.837   4.170 -0.3147  0.2859  0.2627
  655POSM   NC3 7312  12.057  14.482   2.194  0.0385  0.1560  0.0455
  655POSM   PO4 7313  11.627  14.220   2.162 -0.4097 -0.0803 -0.3195
  655POSM   AM1 7314  11.456  13.979   2.424 -0.3127  0.0769  0.1596
  655POSM   AM2 7315  11.388  14.182   2.667 -0.1036  0.2196 -0.1419
  655POSM   T1A 7316  11.291  13.620   2.733  0.0866 -0.2162 -0.0000
  655POSM   C2A 7317  11.186  13.273   3.097  0.6566  0.2910  0.2257
  655POSM   C3A 7318  10.981  12.904   3.227 -0.0544  0.0899 -0.2113
  655POSM   C1B 7319  11.243  14.052   3.029 -0.1084  0.0018 -0.3455
  655POSM   D2B 7320  11.223  13.785   3.442  0.2524 -0.0001  0.1628
  655POSM   C3B 7321  11.025  14.015   3.855 -0.0447 -0.1581  0.1164
  655POSM   C4B 7322  10.926  13.867   4.294  0.2158  0.1995 -0.0200
  656POPS   CNO 7323   7.169   3.384   2.109  0.2127  0.0453  0.1448
  656POPS   PO4 7324   7.410   3.115   2.402 -0.0290  0.5043 -0.0556
  656POPS   GL1 7325   7.403   3.187   2.803 -0.0728  0.1083  0.0221
  656POPS   GL2 7326   7.211   3.012   3.059  0.0550 -0.0911  0.2929
  656POPS   C1A 7327   7.820   3.137   3.013  0.0714 -0.0108 -0.1769
  656POPS   D2A 7328   7.964   3.169   3.429  0.1336  0.0131 -0.0596
  656POPS   C3A 7329   8.395   3.236   3.613 -0.2737  0.0314 -0.1375
  656POPS   C4A 7330   8.571   3.072   3.958 -0.2744 -0.0882 -0.2479
  656POPS   C1B 7331   7.472   3.082   3.421  0.4127 -0.1463 -0.0690
  656POPS   C2B 7332   7.750   2.939   3.827  0.2242 -0.0383 -0.2559
  656POPS   C3B 7333   8.130   2.959   4.122  0.0421 -0.1114  0.1889
  656POPS   C4B 7334   8.459   2.684   4.364  0.3813  0.0562 -0.2141
  657POSM   NC3 7335  13.797   8.081   1.725  0.2320  0.0945  0.3173
  657POSM   PO4 7336  14.028   8.325   1.994 -0.1510  0.2783 -0.0074
  657POSM   AM1 7337  13.927   8.164   2.409 -0.2724 -0.0137 -0.2754
  657POSM   AM2 7338  14.202   8.144   2.506  0.1287 -0.3259  0.1107
  657POSM   T1A 7339  13.827   7.858   2.749 -0.1155  0.1992  0.1022
  657POSM   C2A 7340  13.921   7.873   3.244  0.0974  0.2218  0.1166
  657POSM   C3A 7341  14.218   7.880   3.694 -0.1309  0.0512 -0.1442
  657POSM   C1B 7342  14.125   8.282   2.909  0.3091 -0.1110 -0.1865
  657POSM   D2B 7343  13.938   8.369   3.336 -0.1443 -0.1620 -0.0635
  657POSM   C3B 7344  14.200   8.582   3.696  0.1960  0.1729  0.2839
  657POSM   C4B 7345  14.208   8.518   4.201  0.4034 -0.0626  0.0498
  658POPE   NH3 7346  12.574   5.716   2.556  0.1422  0.1249  0.3351
  658POPE   PO4 7347  12.743   6.140   2.497 -0.0622 -0.2255 -0.1748
  658POPE   GL1 7348  12.742   6.072   2.846  0.0332 -0.1305 -0.2672
  658POPE   GL2 7349  12.798   6.339   2.993  0.1992  0.3344  0.2028
  658POPE   C1A 7350  12.878   5.925   3.142 -0.0516  0.1808 -0.1833
  658POPE   D2A 7351  13.097   5.604   3.246  0.2066  0.1271  0.0035
  658POPE   C3A 7352  13.167   5.646   3.571  0.0207 -0.2885  0.1539
  658POPE   C4A 7353  13.532   5.567   3.887 -0.0391  0.0197 -0.0911
  658POPE   C1B 7354  12.600   6.230   3.439  0.1910  0.1315  0.0818
  658POPE   C2B 7355  12.584   6.364   3.778  0.0974 -0.0653 -0.2343
  658POPE   C3B 7356  12.351   6.632   3.990 -0.0567  0.0664 -0.0243
  658POPE   C4B 7357  11.972   6.723   4.178 -0.0633  0.1066 -0.0259
  659POPE   NH3 7358  12.345   4.333   2.284 -0.0811  0.0645 -0.1456
  659POPE   PO4 7359  12.180   4.381   2.577  0.1459  0.2743  0.1117
  659POPE   GL1 7360  12.034   4.241   2.922 -0.2365 -0.1078 -0.1926
  659POPE   GL2 7361  12.167   3.938   3.047  0.0351 -0.1018  0.0433
  659POPE   C1A 7362  11.876   4.227   3.349 -0.1670 -0.2907  0.1880
  659POPE   D2A 7363  11.669   4.486   3.622 -0.2348 -0.1572 -0.2380
  659POPE   C3A 7364  11.200   4.550   3.739  0.2505  0.1117  0.4615
  659POPE   C4A 7365  10.739   4.649   3.973  0.2410  0.0090 -0.1816
  659POPE   C1B 7366  12.181   3.830   3.400 -0.0066 -0.1918  0.0063
  659POPE   C2B 7367  12.104   3.872   3.789 -0.2633  0.0479 -0.2365
  659POPE   C3B 7368  11.866   4.107   3.848  0.0153 -0.0956  0.0324
  659POPE   C4B 7369  11.407   4.097   3.625 -0.0051  0.3981 -0.0967
  660POPC   NC3 7370   9.860   2.965   2.504 -0.2319 -0.0991  0.1177
  660POPC   PO4 7371  10.180   3.389   2.407  0.3199  0.0913  0.0272
  660POPC   GL1 7372  10.242   3.617   2.738  0.0619  0.1100 -0.4064
  660POPC   GL2 7373  10.542   3.754   2.675 -0.0687  0.1829 -0.1259
  660POPC   C1A 7374  10.198   3.550   3.127  0.1399  0.2111  0.0477
  660POPC   D2A 7375  10.194   3.252   3.357 -0.0256 -0.5088  0.4036
  660POPC   C3A 7376  10.023   3.246   3.731 -0.1654 -0.0991  0.0230
  660POPC   C4A 7377   9.785   3.548   3.953  0.0090 -0.0187  0.1404
  660POPC   C1B 7378  10.524   3.957   2.960 -0.0857 -0.1123 -0.1780
  660POPC   C2B 7379  10.348   4.122   3.331 -0.1483 -0.0778  0.1812
  660POPC   C3B 7380  10.373   4.192   3.739 -0.2862  0.3098  0.1497
  660POPC   C4B 7381  10.484   4.125   4.114 -0.0369 -0.1151  0.0001
  661POSM   NC3 7382   6.980  13.114   2.207 -0.2056 -0.0730  0.0421
  661POSM   PO4 7383   6.620  13.084   2.149  0.1480 -0.1561 -0.1495
  661POSM   AM1 7384   6.564  13.327   2.528 -0.0889 -0.0866 -0.1088
  661POSM   AM2 7385   6.558  13.021   2.663 -0.1378 -0.0651 -0.0866
  661POSM   T1A 7386   6.970  13.413   2.857  0.1914 -0.1152  0.2222
  661POSM   C2A 7387   7.163  13.470   3.257 -0.3100 -0.2238  0.1065
  661POSM   C3A 7388   7.297  13.503   3.698  0.1138 -0.2831  0.1527
  661POSM   C1B 7389   6.640  12.849   3.044 -0.0504  0.0344 -0.0743
  661POSM   D2B 7390   6.386  12.733   3.350  0.0782 -0.0714  0.2133
  661POSM   C3B 7391   6.098  12.384   3.501  0.2680 -0.2307  0.1131
  661POSM   C4B 7392   6.014  11.910   3.617  0.1227  0.0774 -0.0166
  662POSM   NC3 7393  12.272  13.669   2.470 -0.2238  0.1486  0.4692
  662POSM   PO4 7394  12.143  13.258   2.347 -0.3202  0.0791  0.1342
  662POSM   AM1 7395  12.209  13.204   2.729  0.2631  0.2220  0.0859
  662POSM   AM2 7396  12.357  12.925   2.846 -0.0213 -0.2997  0.2682
  662POSM   T1A 7397  12.267  13.321   3.100  0.1888  0.2147 -0.0495
  662POSM   C2A 7398  12.493  13.238   3.536  0.2632  0.0982 -0.1435
  662POSM   C3A 7399  12.570  13.386   3.967 -0.1989 -0.1478 -0.1307
  662POSM   C1B 7400  12.156  12.878   3.275 -0.0805 -0.0658 -0.1658
  662POSM   D2B 7401  11.799  12.798   3.377 -0.2581 -0.0951  0.3835
  662POSM   C3B 7402  11.795  12.677   3.769 -0.0404 -0.0145 -0.3358
  662POSM   C4B 7403  11.708  12.958   4.056  0.2235  0.1360  0.0533
  663POPS   CNO 7404   6.165   2.330   2.344  0.1888 -0.0646  0.1065
  663POPS   PO4 7405   5.749   2.288   2.396 -0.1395  0.2876  0.1273
  663POPS   GL1 7406   5.892   2.319   2.777 -0.0919  0.1687 -0.0351
  663POPS   GL2 7407   6.156   2.491   2.791 -0.0729  0.0075 -0.1518
  663POPS   C1A 7408   5.832   2.270   3.250 -0.1268  0.0449  0.0010
  663POPS   D2A 7409   5.709   2.201   3.684  0.1839 -0.3172 -0.2425
  663POPS   C3A 7410   5.750   2.600   3.893  0.0705  0.3240  0.0440
  663POPS   C4A 7411   5.628   2.804   4.290 -0.0148 -0.0179  0.1595
  663POPS   C1B 7412   6.326   2.549   3.155 -0.4295 -0.2557 -0.2222
  663POPS   C2B 7413   6.289   2.306   3.412  0.7244 -0.4400  0.0008
  663POPS   C3B 7414   6.401   2.048   3.735  0.0795 -0.1334  0.0840
  663POPS   C4B 7415   6.524   2.316   4.244 -0.1133  0.1164 -0.1379
  664POPE   NH3 7416   3.619   4.250   1.848  0.2700  0.0919  0.3243
  664POPE   PO4 7417   3.890   4.248   2.179 -0.0222 -0.2141  0.0793
  664POPE   GL1 7418   3.681   4.247   2.520  0.2245 -0.1562 -0.1051
  664POPE   GL2 7419   3.898   4.292   2.687  0.2086 -0.0509 -0.1600
  664POPE   C1A 7420   3.488   4.213   2.953 -0.0166  0.1688  0.0578
  664POPE   D2A 7421   3.330   4.158   3.344  0.0195 -0.4331  0.0255
  664POPE   C3A 7422   3.334   4.369   3.714 -0.0552 -0.1089 -0.1788
  664POPE   C4A 7423   3.374   4.570   4.107 -0.0856  0.0111  0.1653
  664POPE   C1B 7424   4.278   4.040   2.941 -0.0258 -0.1635  0.0539
  664POPE   C2B 7425   4.450   3.993   3.249 -0.2834  0.0978 -0.0691
  664POPE   C3B 7426   4.424   3.781   3.634  0.3004  0.0345  0.0448
  664POPE   C4B 7427   4.571   3.725   4.092 -0.2289  0.1985 -0.0026
  665POPS   CNO 7428   9.426  13.403   2.232 -0.3216  0.1929  0.1069
  665POPS   PO4 7429   9.801  13.288   2.417  0.1074  0.2920 -0.2145
  665POPS   GL1 7430   9.617  13.502   2.754  0.3925  0.1782 -0.0281
  665POPS   GL2 7431   9.837  13.688   2.847  0.0215 -0.2281 -0.3288
  665POPS   C1A 7432   9.307  13.716   2.939  0.0471 -0.0101  0.1968
  665POPS   D2A 7433   8.996  14.044   3.030 -0.0407  0.3457 -0.1254
  665POPS   C3A 7434   8.713  14.168   3.321  0.0569 -0.2906 -0.0194
  665POPS   C4A 7435   8.811  14.273   3.728 -0.0975  0.1111  0.1579
  665POPS   C1B 7436   9.830  13.621   3.382 -0.1760 -0.1773 -0.1128
  665POPS   C2B 7437   9.707  13.442   3.865  0.0655  0.0745  0.1734
  665POPS   C3B 7438   9.363  13.600   4.030 -0.0479  0.1459  0.0696
  665POPS   C4B 7439   9.052  14.011   4.097 -0.0817  0.0242 -0.1444
  666CHOL   ROH 7440   4.603  10.379   2.983 -0.2817  0.1139  0.1105
  666CHOL    R1 7441   4.688  10.615   3.114 -0.1494  0.1094  0.0356
  666CHOL    R2 7442   4.613  10.677   3.372 -0.0150  0.1739  0.0612
  666CHOL    R3 7443   4.881  10.698   3.411  0.0096  0.0956 -0.0628
  666CHOL    R4 7444   4.762  10.769   3.670  0.1590 -0.0602  0.0487
  666CHOL    R5 7445   4.905  10.888   3.555  0.1223 -0.0080  0.0564
  666CHOL    C1 7446   5.102  10.842   3.879  0.2834 -0.2701 -0.0750
  666CHOL    C2 7447   5.031  10.815   4.301 -0.0318 -0.2606 -0.1490
  667POSM   NC3 7448   5.835  11.847   1.854  0.1761 -0.1626  0.1476
  667POSM   PO4 7449   6.199  12.164   1.957 -0.1773  0.0528  0.2365
  667POSM   AM1 7450   6.064  12.159   2.372  0.0552 -0.0226 -0.0768
  667POSM   AM2 7451   5.981  11.875   2.320 -0.1090  0.3311  0.0327
  667POSM   T1A 7452   6.068  12.098   2.854 -0.1147 -0.5145 -0.3435
  667POSM   C2A 7453   6.209  12.006   3.195  0.0229  0.0289  0.0834
  667POSM   C3A 7454   6.513  11.758   3.500 -0.3157  0.0838 -0.2533
  667POSM   C1B 7455   5.717  11.653   2.572  0.0566 -0.1706 -0.2303
  667POSM   D2B 7456   5.367  11.401   2.790 -0.0362 -0.0689 -0.3566
  667POSM   C3B 7457   5.298  11.431   3.242 -0.0396 -0.2669  0.0723
  667POSM   C4B 7458   5.050  11.371   3.669 -0.0668  0.2722  0.2741
  668POPE   NH3 7459  13.800   9.875   2.201 -0.3237  0.1901  0.0927
  668POPE   PO4 7460  13.341  10.028   2.218  0.1552  0.0751 -0.0448
  668POPE   GL1 7461  13.531  10.165   2.617 -0.2122 -0.1404  0.0825
  668POPE   GL2 7462  13.388   9.863   2.818  0.2915 -0.2816  0.1334
  668POPE   C1A 7463  13.695  10.293   3.056  0.1408 -0.2075 -0.2914
  668POPE   D2A 7464  13.457  10.261   3.484  0.1239  0.1014 -0.2951
  668POPE   C3A 7465  13.629  10.292   3.876  0.0540  0.1007  0.1376
  668POPE   C4A 7466  13.610  10.283   4.311 -0.2918  0.0477 -0.2068
  668POPE   C1B 7467  13.053   9.617   3.053  0.1972  0.5087  0.3767
  668POPE   C2B 7468  12.945   9.578   3.507 -0.1109  0.0457 -0.0183
  668POPE   C3B 7469  12.951   9.460   3.974 -0.2383  0.3179 -0.1143
  668POPE   C4B 7470  13.351   9.370   4.256  0.0791 -0.2816 -0.2484
  669POPE   NH3 7471   3.468   8.309   1.937 -0.0790  0.2659  0.0502
  669POPE   PO4 7472   3.048   8.311   2.192  0.0844 -0.1025 -0.0276
  669POPE   GL1 7473   3.036   8.426   2.602 -0.1097  0.0545 -0.1005
  669POPE   GL2 7474   2.819   8.606   2.902 -0.1554  0.1181 -0.2030
  669POPE   C1A 7475   3.029   8.142   2.902 -0.1637  0.1414 -0.1395
  669POPE   D2A 7476   3.174   8.070   3.330  0.0209  0.3014 -0.0872
  669POPE   C3A 7477   3.407   8.254   3.756  0.0229  0.0668  0.0328
  669POPE   C4A 7478   3.335   8.173   4.220  0.0624 -0.0640 -0.1466
  669POPE   C1B 7479   3.019   8.525   3.374  0.1676  0.1839  0.0195
  669POPE   C2B 7480   3.037   8.618   3.840  0.1513 -0.3074  0.0449
  669POPE   C3B 7481   3.099   8.578   4.308 -0.3281  0.1798  0.0264
  669POPE   C4B 7482   3.489   8.715   4.584  0.1927 -0.1696 -0.0318
  670POPS   CNO 7483  13.368   6.297   2.133 -0.1017  0.1945 -0.1029
  670POPS   PO4 7484  13.559   6.516   2.506  0.0822 -0.0943 -0.2335
  670POPS   GL1 7485  13.916   6.298   2.783 -0.1207  0.1349  0.1460
  670POPS   GL2 7486  14.183   6.008   2.758  0.2408  0.2598 -0.0923
  670POPS   C1A 7487  13.789   6.265   3.309  0.3179  0.0997  0.2118
  670POPS   D2A 7488  13.679   6.404   3.713 -0.0377  0.1579  0.0794
  670POPS   C3A 7489  13.816   6.337   4.269 -0.4900 -0.0095 -0.1574
  670POPS   C4A 7490  13.889   6.570   4.541  0.2588 -0.0588 -0.1626
  670POPS   C1B 7491  14.142   5.887   3.190  0.3510 -0.1369  0.2218
  670POPS   C2B 7492  14.201   6.090   3.593  0.0220  0.1476  0.0455
  670POPS   C3B 7493  14.146   6.433   3.914  0.2436 -0.0499 -0.0606
  670POPS   C4B 7494  14.269   6.685   4.221  0.0880 -0.1285 -0.0408
  671CHOL   ROH 7495   3.448   8.614   2.414 -0.2163  0.0724 -0.0880
  671CHOL    R1 7496   3.496   8.755   2.655 -0.1797  0.0176 -0.0631
  671CHOL    R2 7497   3.317   8.937   2.759 -0.1633 -0.0054  0.0047
  671CHOL    R3 7498   3.338   8.782   2.982 -0.1309 -0.0555 -0.0329
  671CHOL    R4 7499   3.280   9.051   3.083 -0.0832 -0.0702  0.0371
  671CHOL    R5 7500   3.447   8.924   3.142 -0.0825 -0.0995 -0.0257
  671CHOL    C1 7501   3.279   8.973   3.481 -0.0062 -0.1549  0.0205
  671CHOL    C2 7502   3.542   9.258   3.671 -0.1253  0.0364 -0.1467
  672POSM   NC3 7503   5.535  13.701   2.380 -0.0276  0.2117  0.3740
  672POSM   PO4 7504   5.913  13.702   2.159  0.4826 -0.1202 -0.1847
  672POSM   AM1 7505   6.145  13.588   2.479 -0.2326  0.2963  0.1079
  672POSM   AM2 7506   6.284  13.843   2.567 -0.0701  0.3286 -0.1348
  672POSM   T1A 7507   6.308  13.468   2.916  0.1604 -0.0142  0.0111
  672POSM   C2A 7508   6.524  13.335   3.237 -0.1370 -0.2208 -0.0532
  672POSM   C3A 7509   6.256  13.211   3.632 -0.0011  0.1339 -0.0836
  672POSM   C1B 7510   6.223  13.948   3.032 -0.2463 -0.0533 -0.0232
  672POSM   D2B 7511   6.057  13.632   3.340 -0.1274 -0.0607 -0.3040
  672POSM   C3B 7512   5.589  13.512   3.404 -0.4571 -0.0272 -0.2935
  672POSM   C4B 7513   5.218  13.325   3.604 -0.4281 -0.4511  0.1017
  673POPE   NH3 7514   8.937   3.003   2.367 -0.2186 -0.2998 -0.5470
  673POPE   PO4 7515   9.403   3.010   2.509  0.3263  0.4293 -0.0910
  673POPE   GL1 7516   9.552   3.426   2.580  0.1617 -0.0462  0.0535
  673POPE   GL2 7517   9.809   3.373   2.934 -0.2059  0.1145 -0.1168
  673POPE   C1A 7518   9.654   3.874   2.715 -0.2964  0.0929 -0.1569
  673POPE   D2A 7519   9.711   4.369   2.672  0.1068  0.0638 -0.1525
  673POPE   C3A 7520   9.422   4.705   2.871 -0.0985 -0.1429  0.1773
  673POPE   C4A 7521   9.137   5.012   2.737  0.1222 -0.0818  0.0892
  673POPE   C1B 7522   9.728   3.410   3.337 -0.0184 -0.2300 -0.3073
  673POPE   C2B 7523   9.483   3.166   3.665  0.0521  0.0432  0.1230
  673POPE   C3B 7524   9.419   2.700   3.884 -0.1690 -0.0381 -0.1981
  673POPE   C4B 7525   9.541   2.429   4.187  0.1382 -0.0136  0.0840
  674POPS   CNO 7526   3.292   7.859   1.919 -0.1499  0.0148 -0.2068
  674POPS   PO4 7527   3.055   7.450   2.049  0.1756 -0.0313  0.1207
  674POPS   GL1 7528   3.084   7.311   2.476 -0.4274  0.3180  0.2907
  674POPS   GL2 7529   3.423   7.280   2.601  0.1122  0.1792 -0.1239
  674POPS   C1A 7530   2.858   7.305   2.922 -0.2870 -0.0181 -0.0304
  674POPS   D2A 7531   2.895   7.166   3.313  0.2240  0.3578 -0.0605
  674POPS   C3A 7532   3.109   7.401   3.573  0.2858  0.3629  0.0922
  674POPS   C4A 7533   3.481   7.302   3.799 -0.1820 -0.0884  0.2099
  674POPS   C1B 7534   3.228   6.999   2.815 -0.2649 -0.4761 -0.2596
  674POPS   C2B 7535   3.271   6.830   3.218 -0.1590 -0.0320 -0.0516
  674POPS   C3B 7536   3.303   6.904   3.593 -0.1039 -0.2143 -0.0211
  674POPS   C4B 7537   3.566   6.836   3.977  0.0212  0.2324 -0.2023
  675POPC   NC3 7538  12.916   4.890   2.615  0.0719  0.1231 -0.0143
  675POPC   PO4 7539  12.769   4.433   2.566 -0.0297  0.1260  0.2167
  675POPC   GL1 7540  12.505   4.566   2.895  0.0408 -0.1025  0.4068
  675POPC   GL2 7541  12.559   4.842   2.977  0.1293 -0.4845 -0.0319
  675POPC   C1A 7542  12.466   4.293   3.220  0.1375 -0.0313  0.3070
  675POPC   D2A 7543  12.353   4.340   3.637  0.2504 -0.0325  0.3984
  675POPC   C3A 7544  12.531   4.663   3.908 -0.0014  0.0530 -0.0244
  675POPC   C4A 7545  12.249   4.943   4.138  0.1185  0.0785  0.4946
  675POPC   C1B 7546  12.626   4.709   3.381 -0.3944  0.0763 -0.0734
  675POPC   C2B 7547  12.830   4.407   3.615  0.3119  0.3241  0.1522
  675POPC   C3B 7548  12.819   4.297   4.044  0.1182 -0.2880 -0.1372
  675POPC   C4B 7549  12.920   4.069   4.314  0.0185  0.0870  0.2170
  676POPC   NC3 7550   5.094  11.499   2.388 -0.0510  0.0443  0.0737
  676POPC   PO4 7551   4.868  11.893   2.242  0.3791 -0.1186 -0.0864
  676POPC   GL1 7552   5.047  11.895   2.676  0.2970  0.3648  0.0144
  676POPC   GL2 7553   4.916  12.152   2.824 -0.0230  0.0370  0.0733
  676POPC   C1A 7554   5.357  11.847   3.000 -0.3969 -0.0900  0.0894
  676POPC   D2A 7555   5.737  11.733   3.176  0.0667 -0.1578 -0.1223
  676POPC   C3A 7556   5.671  11.601   3.529 -0.3184 -0.0998 -0.1153
  676POPC   C4A 7557   5.764  11.792   4.027 -0.0733 -0.0582 -0.0054
  676POPC   C1B 7558   5.116  12.333   3.251 -0.1692  0.0126 -0.2236
  676POPC   C2B 7559   5.411  12.539   3.541 -0.0368  0.0450  0.0723
  676POPC   C3B 7560   5.396  12.748   3.954 -0.2571 -0.1744  0.3453
  676POPC   C4B 7561   5.451  12.870   4.340 -0.1024  0.0438 -0.1939
  677POPS   CNO 7562   3.759  10.181   1.890 -0.1733 -0.1825 -0.2361
  677POPS   PO4 7563   3.868  10.029   2.241 -0.1865 -0.2824  0.1853
  677POPS   GL1 7564   3.765   9.668   2.604  0.4349 -0.1620 -0.0578
  677POPS   GL2 7565   3.644   9.241   2.441  0.0020  0.1189  0.0121
  677POPS   C1A 7566   3.782   9.870   3.002  0.1382  0.0579 -0.0422
  677POPS   D2A 7567   3.550  10.139   3.213  0.0330 -0.3788 -0.1248
  677POPS   C3A 7568   3.385  10.165   3.689 -0.0958 -0.0987 -0.1346
  677POPS   C4A 7569   3.411  10.101   4.149  0.0793  0.1084  0.1547
  677POPS   C1B 7570   3.888   9.181   2.892 -0.2404  0.3608  0.1422
  677POPS   C2B 7571   3.913   9.460   3.310  0.2706  0.1948 -0.0415
  677POPS   C3B 7572   4.014   9.371   3.700 -0.1330  0.0089  0.2405
  677POPS   C4B 7573   4.165   9.263   4.106 -0.0536  0.4707  0.0653
  678POPC   NC3 7574   2.912   4.520   1.950 -0.1165  0.1622 -0.0092
  678POPC   PO4 7575   2.953   4.837   2.300  0.3217  0.1549 -0.2354
  678POPC   GL1 7576   3.111   5.122   2.624 -0.1753 -0.1956 -0.0080
  678POPC   GL2 7577   2.790   5.051   2.846  0.1645  0.0520 -0.0647
  678POPC   C1A 7578   3.367   5.148   2.933  0.1246 -0.0277 -0.2058
  678POPC   D2A 7579   3.549   5.107   3.316  0.0212  0.0173  0.0007
  678POPC   C3A 7580   3.493   4.956   3.679 -0.0875 -0.1190 -0.0189
  678POPC   C4A 7581   3.725   4.872   3.926  0.0051  0.0868  0.0484
  678POPC   C1B 7582   3.005   4.922   3.139 -0.1313 -0.2786 -0.2561
  678POPC   C2B 7583   3.096   4.786   3.462  0.1696 -0.0842 -0.1141
  678POPC   C3B 7584   2.989   4.679   3.857  0.2264 -0.2233  0.0264
  678POPC   C4B 7585   2.999   4.295   4.095  0.2868 -0.0555 -0.3147
  679CHOL   ROH 7586  12.549  11.144   3.014  0.1645  0.1042 -0.0491
  679CHOL    R1 7587  12.546  11.113   3.296  0.0702  0.1286 -0.0470
  679CHOL    R2 7588  12.743  10.975   3.431  0.0094  0.1161  0.0281
  679CHOL    R3 7589  12.763  11.205   3.573 -0.0077  0.1258  0.0150
  679CHOL    R4 7590  12.980  11.036   3.675 -0.0002  0.1458  0.0304
  679CHOL    R5 7591  12.825  11.134   3.794 -0.0087  0.1434  0.0207
  679CHOL    C1 7592  13.137  11.288   3.951 -0.0219  0.1723  0.0193
  679CHOL    C2 7593  13.282  11.285   4.321 -0.1226 -0.2489 -0.0800
  680POPE   NH3 7594  13.137  10.436   2.369  0.1888  0.1371 -0.2226
  680POPE   PO4 7595  13.448  10.770   2.374  0.0914  0.0618  0.0252
  680POPE   GL1 7596  13.295  10.642   2.825 -0.1670  0.0711 -0.0921
  680POPE   GL2 7597  13.094  10.333   2.939  0.1947  0.1660 -0.0574
  680POPE   C1A 7598  13.139  10.673   3.278  0.0436  0.2103  0.0484
  680POPE   D2A 7599  13.145  10.504   3.818  0.0491  0.3321 -0.0888
  680POPE   C3A 7600  13.085  10.804   4.117  0.0269 -0.0645 -0.0015
  680POPE   C4A 7601  13.137  10.813   4.691 -0.0015 -0.2067 -0.0475
  680POPE   C1B 7602  13.002  10.089   3.356  0.1101 -0.1336  0.2357
  680POPE   C2B 7603  12.866   9.997   3.823 -0.1531 -0.0755 -0.1427
  680POPE   C3B 7604  12.448  10.055   4.026 -0.0837 -0.0069  0.0631
  680POPE   C4B 7605  12.088  10.170   3.741  0.0086  0.2182  0.0406
  681POPS   CNO 7606   9.419  13.976   2.592  0.2904 -0.3041  0.0726
  681POPS   PO4 7607   9.102  13.779   2.392 -0.3627  0.2071  0.2527
  681POPS   GL1 7608   8.923  13.582   2.664  0.2951 -0.1274 -0.1355
  681POPS   GL2 7609   8.626  13.419   2.564 -0.2172 -0.1268  0.1634
  681POPS   C1A 7610   8.882  13.547   3.216  0.0107  0.1452  0.0440
  681POPS   D2A 7611   8.935  13.278   3.606  0.3006  0.2885  0.1852
  681POPS   C3A 7612   8.740  13.385   4.009  0.1531 -0.2659 -0.3390
  681POPS   C4A 7613   8.580  13.528   4.498 -0.0679 -0.1087  0.4193
  681POPS   C1B 7614   8.182  13.419   2.727  0.3159 -0.1635 -0.1729
  681POPS   C2B 7615   7.928  13.689   3.065 -0.3099  0.3124 -0.1532
  681POPS   C3B 7616   7.702  13.765   3.369 -0.1655 -0.2369 -0.1218
  681POPS   C4B 7617   7.468  13.937   3.697 -0.3776 -0.0281 -0.3064
  682POPS   CNO 7618   6.590   2.354   2.007  0.1743 -0.0518  0.1979
  682POPS   PO4 7619   6.760   2.358   2.428  0.2284 -0.0030 -0.2072
  682POPS   GL1 7620   6.754   2.361   2.929 -0.1640  0.0546  0.1285
  682POPS   GL2 7621   7.044   2.239   3.073 -0.2300 -0.3624  0.2747
  682POPS   C1A 7622   6.751   2.750   3.193  0.0999  0.0142  0.0490
  682POPS   D2A 7623   6.541   2.755   3.577  0.1281  0.1221 -0.0303
  682POPS   C3A 7624   6.265   2.529   3.864 -0.1185  0.3102 -0.1559
  682POPS   C4A 7625   6.070   2.556   4.243  0.1261 -0.1091  0.0486
  682POPS   C1B 7626   7.306   2.568   3.324 -0.1219 -0.2912 -0.1064
  682POPS   C2B 7627   7.404   2.553   3.774 -0.1966  0.0007 -0.3175
  682POPS   C3B 7628   7.614   2.711   4.208  0.0528 -0.0772 -0.0714
  682POPS   C4B 7629   7.690   2.768   4.647 -0.0838 -0.0055 -0.4430
  683POPE   NH3 7630   7.667   2.513   2.276 -0.0593 -0.3002 -0.0421
  683POPE   PO4 7631   8.088   2.643   2.542  0.1480 -0.1200  0.0808
  683POPE   GL1 7632   8.198   2.693   2.882  0.2444 -0.2189 -0.0309
  683POPE   GL2 7633   8.268   2.478   2.949  0.2196  0.0398 -0.0580
  683POPE   C1A 7634   8.337   2.870   3.305 -0.1272  0.2861  0.1526
  683POPE   D2A 7635   8.695   2.773   3.476 -0.1578 -0.1996  0.0198
  683POPE   C3A 7636   9.131   2.694   3.337  0.0340 -0.0243  0.1120
  683POPE   C4A 7637   9.322   2.422   3.001 -0.1904  0.1538 -0.0100
  683POPE   C1B 7638   8.478   2.315   3.377  0.1034  0.1761 -0.1301
  683POPE   C2B 7639   8.752   2.248   3.650  0.0251  0.1057 -0.0757
  683POPE   C3B 7640   8.846   2.395   4.052  0.0893  0.1439 -0.1970
  683POPE   C4B 7641   9.075   2.576   4.355  0.1373 -0.3326 -0.0097
  684POSM   NC3 7642   7.606  12.770   2.078  0.3461 -0.0384  0.1434
  684POSM   PO4 7643   7.532  13.146   2.226  0.2673  0.1211 -0.2043
  684POSM   AM1 7644   7.436  12.999   2.497  0.0420  0.0172  0.0658
  684POSM   AM2 7645   7.535  12.652   2.568  0.5476 -0.1380 -0.0717
  684POSM   T1A 7646   7.092  12.940   2.801 -0.3645 -0.0300  0.1659
  684POSM   C2A 7647   7.111  12.931   3.234  0.3102 -0.0243 -0.0619
  684POSM   C3A 7648   6.825  12.979   3.498 -0.0157  0.0423 -0.0039
  684POSM   C1B 7649   7.431  12.509   3.019  0.0999 -0.0288  0.1816
  684POSM   D2B 7650   7.498  12.490   3.510  0.2874 -0.1456  0.0340
  684POSM   C3B 7651   7.529  12.107   3.612  0.0036  0.0805  0.0533
  684POSM   C4B 7652   7.349  11.762   3.820  0.1134 -0.0406 -0.1320
  685POSM   NC3 7653   3.071   6.034   2.188  0.1337 -0.0165  0.0502
  685POSM   PO4 7654   2.915   6.494   2.214  0.1557  0.1108  0.1692
  685POSM   AM1 7655   2.826   6.405   2.559  0.1093 -0.0210  0.2273
  685POSM   AM2 7656   2.825   6.726   2.686 -0.1820  0.1318  0.0453
  685POSM   T1A 7657   2.807   6.276   3.078  0.2997 -0.2210 -0.1730
  685POSM   C2A 7658   2.956   6.091   3.342  0.0702  0.0380 -0.1947
  685POSM   C3A 7659   3.148   5.851   3.709 -0.1994  0.0606  0.0269
  685POSM   C1B 7660   2.738   6.768   3.024 -0.3832 -0.2926  0.1168
  685POSM   D2B 7661   2.918   6.595   3.449  0.0087  0.1857 -0.0926
  685POSM   C3B 7662   2.875   6.769   3.788  0.0854 -0.2398 -0.1061
  685POSM   C4B 7663   3.092   7.066   4.047  0.0836 -0.3016 -0.2332
  686POPC   NC3 7664  12.398   4.819   2.512 -0.0458 -0.3001  0.0981
  686POPC   PO4 7665  12.498   5.242   2.645  0.0914  0.1698  0.3323
  686POPC   GL1 7666  12.687   5.400   2.950  0.1683  0.2090 -0.2145
  686POPC   GL2 7667  12.365   5.476   3.109  0.2832 -0.2017 -0.0862
  686POPC   C1A 7668  12.703   5.246   3.373 -0.0117  0.2260  0.3581
  686POPC   D2A 7669  12.496   5.115   3.712  0.2254 -0.0509 -0.0281
  686POPC   C3A 7670  12.504   5.386   4.016  0.1577  0.2126  0.1040
  686POPC   C4A 7671  12.356   5.786   4.190  0.0821  0.1194  0.0009
  686POPC   C1B 7672  12.355   5.589   3.580  0.0255  0.3172 -0.2249
  686POPC   C2B 7673  12.674   5.857   3.762 -0.0642  0.0198 -0.2693
  686POPC   C3B 7674  12.816   6.016   4.070  0.2408 -0.1202 -0.1446
  686POPC   C4B 7675  12.719   6.028   4.595  0.0028 -0.3259 -0.0634
  687POPC   NC3 7676  13.940   6.188   2.290  0.1833 -0.0772  0.1953
  687POPC   PO4 7677  13.604   5.978   2.462 -0.1035  0.2362 -0.2557
  687POPC   GL1 7678  13.601   5.926   2.926 -0.5226 -0.0432 -0.1162
  687POPC   GL2 7679  13.618   5.595   3.029 -0.2034  0.1011 -0.3174
  687POPC   C1A 7680  13.292   6.132   3.231 -0.2335 -0.0391  0.0117
  687POPC   D2A 7681  13.094   6.195   3.698  0.1573  0.1450  0.0091
  687POPC   C3A 7682  13.309   6.166   4.025 -0.3245 -0.0585 -0.2064
  687POPC   C4A 7683  13.286   6.010   4.475 -0.2161 -0.1489  0.0349
  687POPC   C1B 7684  13.646   5.761   3.446  0.0436 -0.1335  0.2450
  687POPC   C2B 7685  13.762   5.931   3.778  0.3117 -0.3534  0.0689
  687POPC   C3B 7686  13.776   5.833   4.273 -0.0516 -0.0423 -0.3044
  687POPC   C4B 7687  13.567   5.536   4.415 -0.0175  0.1737 -0.2726
  688POPS   CNO 7688  12.682  14.049   1.992  0.0096  0.2066 -0.0600
  688POPS   PO4 7689  12.510  14.202   2.389 -0.0857  0.0033  0.2078
  688POPS   GL1 7690  12.197  14.153   2.710 -0.0777 -0.0127  0.2854
  688POPS   GL2 7691  11.884  14.117   2.623 -0.3545  0.2096  0.1261
  688POPS   C1A 7692  12.136  13.921   3.097 -0.2070 -0.0444  0.3447
  688POPS   D2A 7693  11.955  13.618   3.433  0.1867  0.2263 -0.0625
  688POPS   C3A 7694  11.977  13.249   3.636 -0.1597 -0.0368 -0.0902
  688POPS   C4A 7695  12.174  12.937   3.815  0.0320  0.0626 -0.3687
  688POPS   C1B 7696  11.766  14.315   2.955 -0.1829 -0.0942 -0.1348
  688POPS   C2B 7697  11.502  14.480   3.082 -0.0670 -0.3295 -0.1096
  688POPS   C3B 7698  11.381  14.417   3.452  0.1479 -0.0312 -0.2612
  688POPS   C4B 7699  11.423  14.433   3.916 -0.2743 -0.0212  0.4247
  689POPE   NH3 7700   3.806  10.542   2.315  0.1246 -0.3934 -0.0850
  689POPE   PO4 7701   4.154  10.639   2.445 -0.0603  0.3244  0.2680
  689POPE   GL1 7702   4.209  10.671   2.862  0.0647 -0.1577  0.0609
  689POPE   GL2 7703   4.192  10.992   2.896 -0.1242 -0.0478  0.5463
  689POPE   C1A 7704   4.215  10.390   3.255 -0.0735 -0.0307 -0.1640
  689POPE   D2A 7705   4.371  10.373   3.688  0.0943  0.2350  0.0685
  689POPE   C3A 7706   4.514  10.000   3.941 -0.1699 -0.3462 -0.0162
  689POPE   C4A 7707   4.951   9.893   4.067  0.0857  0.1002  0.1434
  689POPE   C1B 7708   4.172  10.886   3.367  0.2319  0.3199 -0.0617
  689POPE   C2B 7709   4.201  10.853   3.773  0.0016 -0.0957 -0.2155
  689POPE   C3B 7710   4.156  10.561   4.064 -0.1409 -0.0816 -0.2257
  689POPE   C4B 7711   4.304  10.159   4.352 -0.0684 -0.2100 -0.1244
  690POSM   NC3 7712   4.391  11.824   1.986  0.0069 -0.1835 -0.0458
  690POSM   PO4 7713   4.452  12.287   2.029 -0.0329 -0.0825 -0.0390
  690POSM   AM1 7714   4.321  12.160   2.484 -0.1351 -0.2568  0.3531
  690POSM   AM2 7715   4.402  11.857   2.492 -0.1591  0.1122 -0.0002
  690POSM   T1A 7716   4.390  12.188   2.909  0.0457 -0.1879  0.0620
  690POSM   C2A 7717   4.508  12.074   3.270  0.2375 -0.1961 -0.1187
  690POSM   C3A 7718   4.466  11.705   3.510 -0.2377 -0.2278 -0.0322
  690POSM   C1B 7719   4.548  11.707   2.844  0.2788  0.3372 -0.1121
  690POSM   D2B 7720   4.923  11.631   3.069  0.0893 -0.0821  0.1853
  690POSM   C3B 7721   5.008  11.818   3.514 -0.1637 -0.0876 -0.2036
  690POSM   C4B 7722   4.703  11.758   3.978 -0.0901 -0.0910 -0.0679
  691POPE   NH3 7723  10.541  14.146   2.208 -0.1636  0.0807  0.1616
  691POPE   PO4 7724  10.980  14.135   2.378 -0.2300  0.0593 -0.0862
  691POPE   GL1 7725  10.861  14.280   2.678  0.2485 -0.0222 -0.0899
  691POPE   GL2 7726  10.743  14.111   2.905 -0.0825  0.1331 -0.1516
  691POPE   C1A 7727  10.439  14.480   2.793 -0.2173 -0.0779 -0.0690
  691POPE   D2A 7728  10.006  14.551   2.848 -0.1025  0.1959 -0.0811
  691POPE   C3A 7729   9.943  14.463   3.250  0.0632 -0.0446 -0.1016
  691POPE   C4A 7730  10.336  14.475   3.356 -0.0450  0.1163 -0.0926
  691POPE   C1B 7731  10.827  14.372   3.172  0.0874 -0.0481 -0.0165
  691POPE   C2B 7732  10.975  14.422   3.636  0.3017 -0.0329 -0.1919
  691POPE   C3B 7733  10.950  14.487   4.063  0.1315  0.2797  0.0235
  691POPE   C4B 7734  11.109  14.310   4.395  0.0721  0.1243  0.0146
  692POSM   NC3 7735  13.520   8.298   2.133 -0.1332 -0.2961  0.0918
  692POSM   PO4 7736  13.722   8.642   2.267  0.3612  0.2106 -0.2333
  692POSM   AM1 7737  14.046   8.812   2.650  0.0125 -0.1275  0.0624
  692POSM   AM2 7738  14.102   9.155   2.680  0.0184  0.1278 -0.1123
  692POSM   T1A 7739  14.098   8.808   3.095 -0.2182  0.0877 -0.3381
  692POSM   C2A 7740  14.109   8.985   3.441 -0.0518 -0.1707  0.3668
  692POSM   C3A 7741  14.093   9.122   3.937 -0.1543  0.2707 -0.2378
  692POSM   C1B 7742  14.403   9.209   3.018  0.2436  0.1619  0.1029
  692POSM   D2B 7743  14.568   9.219   3.339  0.0611 -0.1540  0.0567
  692POSM   C3B 7744  14.621   8.961   3.713 -0.0308 -0.2440 -0.0470
  692POSM   C4B 7745  14.485   8.882   4.115 -0.2564 -0.1546  0.0733
  693CHOL   ROH 7746  14.737   8.818   2.560 -0.2000 -0.2629 -0.0164
  693CHOL    R1 7747  14.594   8.791   2.802 -0.2934 -0.3785 -0.0822
  693CHOL    R2 7748  14.567   8.550   2.933  0.0414 -0.3627  0.0239
  693CHOL    R3 7749  14.669   8.689   3.144 -0.3064 -0.0785  0.0129
  693CHOL    R4 7750  14.608   8.423   3.253  0.0795 -0.1323  0.1118
  693CHOL    R5 7751  14.540   8.615   3.332 -0.2903 -0.2008 -0.0188
  693CHOL    C1 7752  14.728   8.481   3.636 -0.2248  0.2686  0.1527
  693CHOL    C2 7753  14.689   8.512   3.917 -0.3154  0.1632  0.2835
  694POSM   NC3 7754   4.786   2.295   1.966 -0.0351 -0.2573  0.0618
  694POSM   PO4 7755   4.666   2.247   2.370 -0.0451  0.0163  0.3279
  694POSM   AM1 7756   4.829   2.413   2.753  0.2196 -0.0635  0.0545
  694POSM   AM2 7757   4.707   2.682   2.694  0.1082  0.1908 -0.2706
  694POSM   T1A 7758   4.915   2.261   3.244  0.2243 -0.0777 -0.1577
  694POSM   C2A 7759   4.758   2.456   3.591  0.1403  0.0426 -0.1249
  694POSM   C3A 7760   4.687   2.665   3.904  0.0735  0.2426 -0.3056
  694POSM   C1B 7761   4.830   2.809   3.148  0.0145 -0.1472 -0.1977
  694POSM   D2B 7762   4.785   2.973   3.502 -0.2358 -0.0599  0.1162
  694POSM   C3B 7763   5.065   3.009   3.735 -0.0014  0.1532 -0.1189
  694POSM   C4B 7764   5.479   2.983   3.802  0.0082  0.2707 -0.1681
  695CHOL   ROH 7765   4.304   3.143   2.463 -0.2184  0.0087  0.0433
  695CHOL    R1 7766   4.321   3.141   2.746 -0.0300  0.0387  0.0346
  695CHOL    R2 7767   4.125   3.030   2.906  0.0768  0.0474  0.1798
  695CHOL    R3 7768   4.334   2.889   3.008  0.1510  0.0641  0.0515
  695CHOL    R4 7769   4.148   2.922   3.233  0.1249 -0.2564  0.0789
  695CHOL    R5 7770   4.360   2.975   3.230  0.0958 -0.1354  0.1369
  695CHOL    C1 7771   4.357   2.727   3.520  0.2227 -0.4176 -0.1003
  695CHOL    C2 7772   4.346   3.016   3.823  0.0444  0.1981 -0.0617
  696CHOL   ROH 7773  12.494  13.716   2.893  0.0555  0.0524  0.2029
  696CHOL    R1 7774  12.580  13.727   3.163  0.0075 -0.0179  0.2216
  696CHOL    R2 7775  12.608  13.965   3.300  0.2436 -0.0346  0.2025
  696CHOL    R3 7776  12.444  13.844   3.479  0.0652  0.1674  0.1793
  696CHOL    R4 7777  12.628  14.003   3.643  0.2175 -0.0256  0.2032
  696CHOL    R5 7778  12.586  13.790   3.664 -0.0314  0.0195  0.2138
  696CHOL    C1 7779  12.485  13.912   4.011  0.0347  0.1693  0.1818
  696CHOL    C2 7780  12.476  14.096   4.446  0.0074 -0.2746  0.0490
  697CHOL   ROH 7781   5.319   2.300   2.768  0.0885  0.1061 -0.1234
  697CHOL    R1 7782   5.438   2.420   2.995  0.0349  0.1063 -0.0956
  697CHOL    R2 7783   5.304   2.602   3.154 -0.0637 -0.0287 -0.0258
  697CHOL    R3 7784   5.372   2.430   3.353  0.0618 -0.0496 -0.0852
  697CHOL    R4 7785   5.230   2.648   3.488  0.1384 -0.0640  0.0254
  697CHOL    R5 7786   5.429   2.573   3.537  0.1723 -0.0657 -0.1035
  697CHOL    C1 7787   5.252   2.514   3.870  0.3738 -0.1042 -0.0007
  697CHOL    C2 7788   5.113   2.609   4.279  0.3437  0.1712 -0.2159
  698POPS   CNO 7789  10.684  13.647   1.815 -0.1418 -0.0002 -0.0299
  698POPS   PO4 7790  10.584  13.592   2.158 -0.0955 -0.1280  0.1208
  698POPS   GL1 7791  10.685  13.629   2.627  0.0629 -0.2591 -0.0820
  698POPS   GL2 7792  10.809  13.411   2.759 -0.0614  0.2270 -0.0237
  698POPS   C1A 7793  10.439  13.597   3.082  0.1807  0.2095 -0.3149
  698POPS   D2A 7794  10.393  13.474   3.517 -0.0234 -0.0507 -0.0930
  698POPS   C3A 7795  10.720  13.642   3.830  0.0059  0.1959  0.0713
  698POPS   C4A 7796  11.170  13.553   4.044 -0.0148  0.2921 -0.0276
  698POPS   C1B 7797  10.920  13.689   3.061  0.1002 -0.2948 -0.3218
  698POPS   C2B 7798  10.680  13.991   3.409  0.2018  0.1131  0.2599
  698POPS   C3B 7799  10.547  14.110   3.740  0.3686 -0.2609  0.1859
  698POPS   C4B 7800  10.429  14.427   3.999  0.0289  0.2378  0.2361
  699POSM   NC3 7801  12.943   9.379   2.219  0.0445  0.0509 -0.1522
  699POSM   PO4 7802  13.352   9.520   2.142 -0.0504  0.0498 -0.3855
  699POSM   AM1 7803  13.287   9.225   2.526  0.1858  0.0429  0.0048
  699POSM   AM2 7804  13.541   9.002   2.618  0.1569  0.0913  0.0137
  699POSM   T1A 7805  13.204   9.098   3.016  0.0610 -0.1534 -0.1208
  699POSM   C2A 7806  13.264   9.103   3.330  0.0955  0.1696  0.0413
  699POSM   C3A 7807  13.202   9.038   3.737 -0.2959 -0.0558 -0.3173
  699POSM   C1B 7808  13.663   9.315   2.972 -0.2581  0.5174 -0.0148
  699POSM   D2B 7809  13.691   9.323   3.469  0.0030  0.3039  0.0448
  699POSM   C3B 7810  13.460   9.435   3.777  0.2804  0.0949  0.1435
  699POSM   C4B 7811  13.439   9.805   3.977  0.1145 -0.0539  0.1423
  700POPC   NC3 7812  13.453  11.375   2.413  0.4120  0.4529 -0.0872
  700POPC   PO4 7813  13.851  11.184   2.460  0.2391  0.0369 -0.0864
  700POPC   GL1 7814  13.553  11.358   2.891 -0.2346 -0.1763  0.1157
  700POPC   GL2 7815  13.339  11.736   2.876  0.1783  0.2455 -0.0960
  700POPC   C1A 7816  13.679  11.430   3.344 -0.2215  0.1220  0.4054
  700POPC   D2A 7817  13.723  11.395   3.827 -0.1710 -0.2500  0.3351
  700POPC   C3A 7818  13.693  11.518   4.291 -0.2933  0.0131  0.0008
  700POPC   C4A 7819  13.892  11.841   4.636 -0.0787 -0.0435 -0.0647
  700POPC   C1B 7820  13.539  11.895   3.317 -0.2311 -0.0846 -0.3928
  700POPC   C2B 7821  13.542  12.267   3.674  0.3182  0.0501  0.2253
  700POPC   C3B 7822  13.638  12.400   4.102  0.2854  0.2438 -0.1830
  700POPC   C4B 7823  13.568  12.271   4.529 -0.3213  0.3315  0.1306
  701POPC   NC3 7824  15.076   8.568   2.061 -0.0686 -0.1537 -0.0897
  701POPC   PO4 7825  14.737   8.444   2.199  0.0412 -0.0482 -0.0337
  701POPC   GL1 7826  14.686   8.310   2.525 -0.0555 -0.4518  0.0883
  701POPC   GL2 7827  15.034   8.349   2.623 -0.0961  0.0677  0.0728
  701POPC   C1A 7828  14.599   8.043   2.801  0.0203 -0.0362 -0.0909
  701POPC   D2A 7829  14.449   7.862   3.169 -0.1808 -0.1325 -0.1113
  701POPC   C3A 7830  14.266   7.487   3.283 -0.0932 -0.0091 -0.2523
  701POPC   C4A 7831  14.099   7.078   3.368 -0.0471 -0.3724  0.0125
  701POPC   C1B 7832  15.103   7.976   2.988 -0.1433  0.1266  0.2380
  701POPC   C2B 7833  14.919   7.986   3.365  0.0045  0.0245 -0.2848
  701POPC   C3B 7834  14.717   7.922   3.719 -0.0286  0.2569 -0.1201
  701POPC   C4B 7835  14.482   8.025   4.080 -0.2165  0.3047  0.0299
  702CHOL   ROH 7836   7.711  13.373   2.648 -0.0900 -0.0967 -0.0009
  702CHOL    R1 7837   7.579  13.305   2.888 -0.0598 -0.0539  0.0286
  702CHOL    R2 7838   7.628  13.069   3.023  0.0014 -0.0038  0.0969
  702CHOL    R3 7839   7.675  13.235   3.233 -0.0214  0.0705  0.0431
  702CHOL    R4 7840   7.619  12.975   3.356  0.2359  0.0517  0.1204
  702CHOL    R5 7841   7.520  13.164   3.401  0.1151 -0.0146  0.1336
  702CHOL    C1 7842   7.658  13.077   3.746  0.3510  0.1537  0.0835
  702CHOL    C2 7843   7.298  12.916   3.804 -0.2454 -0.1305  0.3421
  703POPS   CNO 7844   3.494   3.342   2.112  0.2859 -0.1729 -0.1043
  703POPS   PO4 7845   3.673   3.783   2.317  0.3142  0.1193 -0.3221
  703POPS   GL1 7846   3.878   3.822   2.775  0.0101  0.0400  0.3079
  703POPS   GL2 7847   4.139   3.598   2.713  0.1518  0.1028  0.2685
  703POPS   C1A 7848   3.867   3.851   3.214  0.3127  0.3256  0.1809
  703POPS   D2A 7849   3.967   4.151   3.442 -0.0366  0.2012  0.0599
  703POPS   C3A 7850   3.830   4.311   3.834  0.1812 -0.0301 -0.0710
  703POPS   C4A 7851   3.827   4.387   4.291 -0.0142  0.0636  0.1534
  703POPS   C1B 7852   4.311   3.450   3.150 -0.1417 -0.0770  0.3090
  703POPS   C2B 7853   4.196   3.377   3.551  0.2442 -0.1775 -0.0271
  703POPS   C3B 7854   4.095   3.458   4.030  0.2242 -0.0294  0.0600
  703POPS   C4B 7855   4.034   3.801   4.306 -0.2001  0.0955  0.2553
  704POPE   NH3 7856   3.356   5.117   2.170 -0.0938 -0.3792  0.0910
  704POPE   PO4 7857   3.127   5.472   2.198  0.2159  0.2024  0.1017
  704POPE   GL1 7858   3.014   5.610   2.595 -0.0076  0.1134  0.1602
  704POPE   GL2 7859   3.107   5.927   2.685  0.0806  0.0156 -0.0871
  704POPE   C1A 7860   2.999   5.453   2.983  0.0657  0.3056 -0.1787
  704POPE   D2A 7861   3.101   5.513   3.339 -0.3413 -0.1103 -0.0294
  704POPE   C3A 7862   3.152   5.347   3.775  0.1412 -0.3016 -0.2060
  704POPE   C4A 7863   3.225   5.038   4.073 -0.1715 -0.2592  0.0784
  704POPE   C1B 7864   2.681   5.890   2.730  0.2205  0.1273  0.1973
  704POPE   C2B 7865   2.583   5.814   3.152  0.1307  0.0663  0.0601
  704POPE   C3B 7866   2.662   5.732   3.580 -0.3475  0.0149 -0.1753
  704POPE   C4B 7867   2.681   5.718   4.037  0.0890 -0.2640  0.0875
  705POPC   NC3 7868   3.240   4.086   2.181  0.1448 -0.2291 -0.1460
  705POPC   PO4 7869   3.369   4.546   2.196  0.1103 -0.0965 -0.1510
  705POPC   GL1 7870   3.365   4.656   2.616 -0.0136 -0.0852 -0.0376
  705POPC   GL2 7871   3.128   4.613   2.800 -0.1122 -0.0904  0.1477
  705POPC   C1A 7872   3.696   4.658   2.943 -0.0111  0.1322  0.0664
  705POPC   D2A 7873   3.606   4.587   3.319  0.0656  0.3195 -0.1563
  705POPC   C3A 7874   3.990   4.728   3.563 -0.1152  0.2625 -0.0266
  705POPC   C4A 7875   4.190   4.680   3.937 -0.0420  0.1643  0.1006
  705POPC   C1B 7876   2.922   4.406   3.108  0.0229  0.0310  0.0046
  705POPC   C2B 7877   2.862   4.334   3.500 -0.1210 -0.0470 -0.0966
  705POPC   C3B 7878   2.575   4.188   3.797  0.1003  0.0483 -0.1412
  705POPC   C4B 7879   2.309   4.064   4.074  0.1051  0.1688 -0.1524
  706CHOL   ROH 7880   7.602   2.768   2.720 -0.1458 -0.1273 -0.0554
  706CHOL    R1 7881   7.609   2.674   2.987 -0.0527 -0.0307 -0.0249
  706CHOL    R2 7882   7.806   2.504   3.080 -0.0022  0.0425 -0.0250
  706CHOL    R3 7883   7.838   2.696   3.269  0.0220  0.1070 -0.0913
  706CHOL    R4 7884   7.994   2.469   3.368 -0.2806 -0.0235  0.1540
  706CHOL    R5 7885   7.838   2.576   3.477 -0.2806  0.1897 -0.0283
  706CHOL    C1 7886   8.132   2.629   3.714 -0.4200 -0.0013  0.1960
  706CHOL    C2 7887   8.400   2.542   3.895  0.0499 -0.0624  0.0007
  707POPE   NH3 7888  11.054   3.504   2.592 -0.2888 -0.1002 -0.0514
  707POPE   PO4 7889  10.967   3.795   2.343 -0.0218  0.1026  0.4534
  707POPE   GL1 7890  10.978   4.003   2.878  0.2017 -0.1394  0.0227
  707POPE   GL2 7891  11.212   3.776   3.007 -0.0960  0.1415  0.1921
  707POPE   C1A 7892  10.966   4.140   3.367 -0.1580 -0.2825 -0.0609
  707POPE   D2A 7893  10.879   4.091   3.761  0.1103  0.2688  0.2671
  707POPE   C3A 7894  11.104   4.183   4.109 -0.0373  0.1818 -0.2582
  707POPE   C4A 7895  11.425   4.304   4.089 -0.2241 -0.1816 -0.2218
  707POPE   C1B 7896  11.140   3.670   3.461 -0.1965 -0.1249 -0.1772
  707POPE   C2B 7897  11.038   3.559   3.876 -0.0206 -0.2601 -0.0879
  707POPE   C3B 7898  11.189   3.354   4.083  0.1956  0.1334  0.1727
  707POPE   C4B 7899  11.102   3.273   4.450  0.2023  0.1995 -0.1330
  708POSM   NC3 7900   5.332  13.056   2.026 -0.0688  0.2556 -0.1010
  708POSM   PO4 7901   5.150  13.432   2.220  0.0903 -0.1166  0.0241
  708POSM   AM1 7902   5.201  13.510   2.683  0.0243  0.1985  0.1998
  708POSM   AM2 7903   5.310  13.769   2.810  0.4711 -0.0317 -0.0286
  708POSM   T1A 7904   4.984  13.576   3.171  0.1457  0.1204  0.0355
  708POSM   C2A 7905   4.698  13.403   3.574 -0.3005  0.0525 -0.2507
  708POSM   C3A 7906   4.589  13.488   3.949 -0.2464  0.3471 -0.0181
  708POSM   C1B 7907   5.492  13.932   3.191  0.1387 -0.0388 -0.1432
  708POSM   D2B 7908   5.649  14.082   3.647 -0.0327 -0.2381 -0.2726
  708POSM   C3B 7909   5.718  13.846   4.027 -0.2070 -0.0733  0.0450
  708POSM   C4B 7910   5.723  13.998   4.400 -0.0334  0.1915 -0.1709
  709POPC   NC3 7911  13.855   5.391   1.835  0.0231  0.1253 -0.2441
  709POPC   PO4 7912  13.790   5.092   2.298 -0.1428  0.0521  0.1029
  709POPC   GL1 7913  14.008   5.308   2.673  0.1281  0.1502 -0.0605
  709POPC   GL2 7914  13.836   5.164   2.888  0.1906  0.1119  0.1833
  709POPC   C1A 7915  14.316   5.493   3.046 -0.2145  0.2809 -0.1588
  709POPC   D2A 7916  14.522   5.665   3.458 -0.1142 -0.1660  0.0164
  709POPC   C3A 7917  14.546   5.418   3.867 -0.0627 -0.1224  0.0526
  709POPC   C4A 7918  14.389   5.221   4.178 -0.0519 -0.0692  0.0619
  709POPC   C1B 7919  13.897   5.314   3.327  0.0371  0.5861  0.1404
  709POPC   C2B 7920  14.049   5.541   3.613 -0.2018  0.0464 -0.2957
  709POPC   C3B 7921  14.049   5.503   3.974  0.0824 -0.1488 -0.0786
  709POPC   C4B 7922  14.268   5.688   4.360  0.2046 -0.0681  0.3241
  710POPC   NC3 7923  10.551   3.106   1.927  0.2360 -0.2236  0.1576
  710POPC   PO4 7924  10.707   3.307   2.265  0.2010  0.0289 -0.0666
  710POPC   GL1 7925  10.653   3.212   2.669 -0.0431 -0.1183 -0.2016
  710POPC   GL2 7926  10.283   3.100   2.881  0.2454 -0.0035  0.0166
  710POPC   C1A 7927  10.669   3.015   3.171  0.1297  0.0772  0.0195
  710POPC   D2A 7928  10.780   3.092   3.622  0.0380 -0.1024  0.0434
  710POPC   C3A 7929  10.876   2.845   4.006 -0.0244 -0.1431  0.3038
  710POPC   C4A 7930  11.211   2.692   4.373  0.0811 -0.1722 -0.1529
  710POPC   C1B 7931  10.095   2.821   3.147 -0.2862 -0.1685 -0.0471
  710POPC   C2B 7932  10.091   2.752   3.575 -0.1591 -0.0214  0.2383
  710POPC   C3B 7933   9.978   2.558   3.980  0.2650  0.1940  0.0319
  710POPC   C4B 7934   9.945   2.379   4.468 -0.0239 -0.1889  0.1522
  711POPS   CNO 7935   2.788   8.817   2.142  0.1674  0.1678  0.1246
  711POPS   PO4 7936   2.753   8.977   2.513  0.2867 -0.0507 -0.1052
  711POPS   GL1 7937   2.748   9.122   2.929  0.1007  0.2941  0.0174
  711POPS   GL2 7938   2.690   9.388   2.842 -0.0275 -0.0424  0.2196
  711POPS   C1A 7939   2.771   8.951   3.337 -0.0583  0.3283 -0.0047
  711POPS   D2A 7940   2.761   8.998   3.695 -0.3016 -0.1925  0.1797
  711POPS   C3A 7941   3.147   9.182   3.964 -0.0903 -0.2709  0.1599
  711POPS   C4A 7942   3.539   9.106   4.242 -0.0681  0.0779  0.1970
  711POPS   C1B 7943   2.505   9.445   3.272 -0.0699 -0.0413 -0.0549
  711POPS   C2B 7944   2.658   9.521   3.665  0.0804 -0.1472 -0.0250
  711POPS   C3B 7945   2.675   9.338   4.085  0.0327 -0.0530  0.0992
  711POPS   C4B 7946   2.660   9.379   4.546 -0.3466 -0.1969  0.0225
  712CHOL   ROH 7947  11.724   3.750   3.044 -0.2511  0.2631  0.0342
  712CHOL    R1 7948  11.595   3.736   3.296 -0.1040  0.1963  0.1070
  712CHOL    R2 7949  11.599   3.508   3.453 -0.0857  0.1253  0.0038
  712CHOL    R3 7950  11.695   3.679   3.641  0.0868  0.0101  0.0230
  712CHOL    R4 7951  11.608   3.443   3.792 -0.0148  0.0221 -0.0174
  712CHOL    R5 7952  11.548   3.649   3.828  0.1292  0.0506  0.0631
  712CHOL    C1 7953  11.704   3.565   4.166  0.1884 -0.1461 -0.0117
  712CHOL    C2 7954  11.830   3.502   4.525  0.1163 -0.0582 -0.1135
  713POPS   CNO 7955   5.742  13.244   2.233 -0.0728 -0.1457 -0.0176
  713POPS   PO4 7956   6.151  13.073   2.354 -0.2073  0.0660 -0.0672
  713POPS   GL1 7957   5.926  13.043   2.681  0.3083  0.0974 -0.1376
  713POPS   GL2 7958   5.643  13.304   2.792 -0.3193  0.1364  0.0109
  713POPS   C1A 7959   6.037  13.150   3.174  0.0924 -0.0487  0.1455
  713POPS   D2A 7960   5.685  12.978   3.461  0.4101  0.0106 -0.2585
  713POPS   C3A 7961   5.875  12.774   3.707  0.2223  0.0415  0.0308
  713POPS   C4A 7962   5.746  12.300   3.879 -0.0291  0.3072 -0.0289
  713POPS   C1B 7963   5.297  13.151   3.056  0.2419 -0.0869 -0.1671
  713POPS   C2B 7964   5.047  12.906   3.241  0.3258 -0.2223  0.0089
  713POPS   C3B 7965   5.015  12.843   3.679 -0.0121  0.1887 -0.1913
  713POPS   C4B 7966   4.824  12.676   4.097 -0.1073  0.2482  0.0395
  714POPC   NC3 7967  12.692  12.227   2.316 -0.1185 -0.1301  0.2385
  714POPC   PO4 7968  12.740  12.683   2.262 -0.1822  0.2172  0.0246
  714POPC   GL1 7969  12.707  12.586   2.692  0.0446  0.2796  0.0247
  714POPC   GL2 7970  12.862  12.304   2.810 -0.0944 -0.0134 -0.0255
  714POPC   C1A 7971  12.624  12.633   3.163 -0.0207  0.1085  0.1216
  714POPC   D2A 7972  12.494  12.643   3.642  0.0336 -0.0816 -0.1927
  714POPC   C3A 7973  12.677  12.913   3.850  0.0858 -0.2465  0.2813
  714POPC   C4A 7974  12.932  13.013   4.194  0.0965  0.2432 -0.2860
  714POPC   C1B 7975  13.155  12.652   2.998 -0.1444  0.1524 -0.1023
  714POPC   C2B 7976  13.345  13.092   3.069  0.0353 -0.2442 -0.2128
  714POPC   C3B 7977  13.459  13.262   3.451 -0.5369  0.1408  0.2185
  714POPC   C4B 7978  13.056  13.285   3.752 -0.0091 -0.1494 -0.2206
  715CHOL   ROH 7979   2.215   7.657   2.670 -0.1162 -0.2060 -0.0640
  715CHOL    R1 7980   2.413   7.570   2.852 -0.1562 -0.2147 -0.0254
  715CHOL    R2 7981   2.629   7.727   2.923 -0.0821 -0.2868 -0.1072
  715CHOL    R3 7982   2.541   7.677   3.175 -0.0970 -0.1220 -0.0776
  715CHOL    R4 7983   2.788   7.830   3.212  0.0167 -0.2656 -0.1679
  715CHOL    R5 7984   2.741   7.637   3.301 -0.1061 -0.2022 -0.0794
  715CHOL    C1 7985   2.798   7.843   3.617  0.0602 -0.0986 -0.1754
  715CHOL    C2 7986   2.884   8.165   3.848 -0.1750 -0.1279 -0.2939
  716POPC   NC3 7987   4.840  12.386   2.377 -0.0052 -0.1521 -0.1012
  716POPC   PO4 7988   5.237  12.494   2.241  0.1595  0.1528 -0.0152
  716POPC   GL1 7989   5.432  12.459   2.531  0.1143  0.2657 -0.0724
  716POPC   GL2 7990   5.223  12.576   2.814  0.0332 -0.0006 -0.0457
  716POPC   C1A 7991   5.594  12.222   2.845 -0.0676 -0.1096  0.2066
  716POPC   D2A 7992   5.715  12.264   3.226 -0.0394  0.1518  0.1389
  716POPC   C3A 7993   5.472  12.055   3.542  0.0958  0.0963  0.1733
  716POPC   C4A 7994   5.290  11.797   3.899 -0.1994  0.1070 -0.1151
  716POPC   C1B 7995   5.543  12.711   2.970 -0.0043 -0.0777 -0.1150
  716POPC   C2B 7996   5.966  12.637   3.032  0.0367  0.0173  0.0181
  716POPC   C3B 7997   6.413  12.467   2.879  0.0262 -0.3405  0.0165
  716POPC   C4B 7998   6.814  12.398   2.870  0.1940  0.0015 -0.0052
  717POSM   NC3 7999  10.190  14.481   2.217 -0.1554 -0.2397 -0.2446
  717POSM   PO4 8000  10.077  14.127   2.069  0.0029  0.1915 -0.0742
  717POSM   AM1 8001   9.826  14.225   2.465  0.0824  0.2014 -0.0482
  717POSM   AM2 8002  10.117  14.163   2.594 -0.0093 -0.4098  0.1263
  717POSM   T1A 8003   9.603  14.199   2.952 -0.2517 -0.1571  0.3464
  717POSM   C2A 8004   9.595  14.027   3.258  0.2232  0.3563  0.0784
  717POSM   C3A 8005   9.578  13.947   3.716  0.0060 -0.2324  0.1908
  717POSM   C1B 8006  10.227  14.042   3.045  0.1653  0.0208 -0.2262
  717POSM   D2B 8007  10.088  14.083   3.494  0.2650 -0.2947 -0.2467
  717POSM   C3B 8008  10.037  13.816   3.845 -0.0962 -0.0855 -0.5505
  717POSM   C4B 8009  10.197  13.461   3.979  0.0607  0.1091 -0.1060
  718CHOL   ROH 8010  13.750  10.885   2.879  0.3494  0.2267  0.1309
  718CHOL    R1 8011  13.575  10.905   3.101  0.2382  0.0383  0.0616
  718CHOL    R2 8012  13.584  10.729   3.313  0.3554  0.0555  0.0707
  718CHOL    R3 8013  13.608  10.957   3.459  0.0391  0.0910  0.0751
  718CHOL    R4 8014  13.519  10.755   3.652  0.1245  0.0062  0.0319
  718CHOL    R5 8015  13.426  10.948   3.614 -0.0495 -0.0851 -0.0345
  718CHOL    C1 8016  13.504  10.984   3.986 -0.3069  0.0109  0.0134
  718CHOL    C2 8017  13.493  10.769   4.334  0.0427 -0.0433  0.2734
  719POPE   NH3 8018   6.494   1.939   2.215 -0.0874  0.0669  0.0269
  719POPE   PO4 8019   6.478   1.529   2.299  0.0389  0.1216  0.2163
  719POPE   GL1 8020   6.518   1.706   2.710  0.0670  0.4765  0.1119
  719POPE   GL2 8021   6.401   2.050   2.702  0.1288  0.0161 -0.0338
  719POPE   C1A 8022   6.683   1.868   3.147  0.3020  0.0259 -0.1621
  719POPE   D2A 8023   6.797   2.121   3.484 -0.2793  0.1158  0.2544
  719POPE   C3A 8024   7.140   2.157   3.588  0.3464 -0.1778 -0.1873
  719POPE   C4A 8025   7.340   2.044   3.921  0.3009 -0.1501 -0.1237
  719POPE   C1B 8026   6.131   1.921   3.056 -0.1364  0.3695 -0.1063
  719POPE   C2B 8027   6.015   1.783   3.405  0.0931  0.2163 -0.1831
  719POPE   C3B 8028   5.871   1.403   3.547 -0.2999 -0.0216  0.1100
  719POPE   C4B 8029   5.763   1.233   3.761 -0.0362 -0.1581  0.2356
  720POSM   NC3 8030   2.050   9.899   1.744 -0.2254  0.1448  0.0711
  720POSM   PO4 8031   2.496   9.873   2.009  0.1137 -0.0192  0.3524
  720POSM   AM1 8032   2.481   9.908   2.540 -0.1064 -0.1591  0.0926
  720POSM   AM2 8033   2.862   9.765   2.595 -0.0101 -0.0607 -0.2489
  720POSM   T1A 8034   2.604   9.920   2.965  0.2157  0.2447  0.1580
  720POSM   C2A 8035   2.460   9.974   3.438  0.0301  0.1240  0.2976
  720POSM   C3A 8036   2.391   9.921   3.859  0.0384  0.4750  0.1627
  720POSM   C1B 8037   3.193   9.656   2.901 -0.1782 -0.1191  0.2028
  720POSM   D2B 8038   2.990   9.426   3.287  0.0772  0.2972 -0.0477
  720POSM   C3B 8039   3.175   9.684   3.749 -0.0901  0.3230  0.0813
  720POSM   C4B 8040   3.581   9.611   4.010  0.1007  0.2884 -0.0860
  721POSM   NC3 8041   3.892  12.265   2.131 -0.1715 -0.0958 -0.0889
  721POSM   PO4 8042   3.873  11.877   2.222  0.3014 -0.1999 -0.3049
  721POSM   AM1 8043   3.961  11.788   2.638 -0.0187  0.2332 -0.1605
  721POSM   AM2 8044   4.085  11.455   2.719 -0.0118 -0.2137 -0.1612
  721POSM   T1A 8045   3.988  11.961   3.044 -0.0726  0.1595  0.0536
  721POSM   C2A 8046   4.047  11.980   3.463  0.2008 -0.2719  0.1165
  721POSM   C3A 8047   4.317  12.106   3.858 -0.0460  0.0899  0.4034
  721POSM   C1B 8048   4.178  11.487   3.130  0.1719  0.2740 -0.1777
  721POSM   D2B 8049   4.073  11.326   3.512 -0.3027  0.0791  0.0025
  721POSM   C3B 8050   3.914  11.303   3.749 -0.1338  0.0855  0.0756
  721POSM   C4B 8051   3.687  11.010   4.043 -0.1014 -0.0970 -0.4231
  722POPE   NH3 8052  15.592   5.323   2.042 -0.0459 -0.0270 -0.0649
  722POPE   PO4 8053  15.301   5.563   2.189  0.1377 -0.1937  0.1825
  722POPE   GL1 8054  15.473   5.287   2.581  0.0069 -0.3077  0.2871
  722POPE   GL2 8055  15.196   5.310   2.597 -0.2638  0.3617 -0.2974
  722POPE   C1A 8056  15.729   5.263   2.895 -0.0413 -0.3553 -0.2437
  722POPE   D2A 8057  15.772   5.603   3.186  0.1401  0.0432  0.1204
  722POPE   C3A 8058  15.620   6.037   3.155 -0.3223 -0.0834 -0.0297
  722POPE   C4A 8059  15.307   6.351   3.096  0.2164  0.1458  0.3347
  722POPE   C1B 8060  15.252   5.138   3.078 -0.1254 -0.1474 -0.3342
  722POPE   C2B 8061  15.454   5.182   3.454 -0.3494 -0.1241  0.0019
  722POPE   C3B 8062  15.642   5.001   3.805 -0.4395  0.0173 -0.6381
  722POPE   C4B 8063  15.845   4.967   4.169 -0.1935  0.2083  0.1266
  723POPS   CNO 8064   8.751   2.517   3.056 -0.2464 -0.3551 -0.1915
  723POPS   PO4 8065   8.668   2.606   2.621  0.0488  0.4275 -0.0878
  723POPS   GL1 8066   8.584   2.960   2.752  0.2130 -0.0123 -0.2006
  723POPS   GL2 8067   8.343   3.169   2.685  0.0119 -0.1318 -0.0807
  723POPS   C1A 8068   8.828   3.178   3.146 -0.0709  0.1728  0.3964
  723POPS   D2A 8069   9.272   3.239   3.233  0.1750 -0.0673 -0.0048
  723POPS   C3A 8070   9.612   2.916   3.175 -0.0345  0.1346  0.3680
  723POPS   C4A 8071   9.651   2.534   3.473 -0.1282 -0.1403  0.1648
  723POPS   C1B 8072   8.193   3.422   3.120  0.0284  0.1133 -0.0311
  723POPS   C2B 8073   8.213   3.787   3.428 -0.1147 -0.2249  0.3205
  723POPS   C3B 8074   8.478   4.018   3.686 -0.4341  0.3423  0.0191
  723POPS   C4B 8075   8.550   4.269   3.919  0.0410  0.1425  0.1905
  724POPC   NC3 8076   6.402  13.615   2.077 -0.0754 -0.0330 -0.0647
  724POPC   PO4 8077   6.660  13.998   2.235  0.0632 -0.1791  0.1804
  724POPC   GL1 8078   6.803  13.897   2.658 -0.2632  0.0697  0.0890
  724POPC   GL2 8079   7.149  13.881   2.751 -0.1258 -0.0738  0.1899
  724POPC   C1A 8080   6.789  13.784   3.042 -0.0761 -0.2808 -0.0996
  724POPC   D2A 8081   6.559  13.916   3.401  0.0170  0.2334 -0.0719
  724POPC   C3A 8082   6.678  13.585   3.724 -0.0191  0.0070  0.2194
  724POPC   C4A 8083   6.613  13.223   3.975  0.1943  0.0108  0.1670
  724POPC   C1B 8084   7.213  13.954   3.263  0.3439 -0.0892  0.2999
  724POPC   C2B 8085   6.999  14.097   3.626  0.0189 -0.0907 -0.3060
  724POPC   C3B 8086   6.667  14.105   3.962 -0.0307  0.1771 -0.1281
  724POPC   C4B 8087   6.292  14.091   4.206 -0.0504  0.0056 -0.1353
  725CHOL   ROH 8088  13.521   4.393   3.069  0.0514 -0.1129 -0.1491
  725CHOL    R1 8089  13.412   4.369   3.329  0.1278 -0.0446 -0.1082
  725CHOL    R2 8090  13.222   4.179   3.394 -0.1214  0.1966 -0.0911
  725CHOL    R3 8091  13.401   4.115   3.589 -0.1194 -0.1208 -0.1944
  725CHOL    R4 8092  13.141   4.033   3.697 -0.1807  0.2313 -0.0910
  725CHOL    R5 8093  13.287   4.163   3.793  0.0566 -0.0107 -0.1252
  725CHOL    C1 8094  13.262   3.888   4.056 -0.2134 -0.0463 -0.1880
  725CHOL    C2 8095  13.176   3.649   4.362  0.0283  0.2438  0.1431
  726POSM   NC3 8096   2.580   6.641   1.912 -0.0459  0.0302 -0.0481
  726POSM   PO4 8097   2.304   7.050   2.051 -0.1287 -0.0316 -0.0283
  726POSM   AM1 8098   2.074   7.063   2.468 -0.0471 -0.0812 -0.2349
  726POSM   AM2 8099   2.458   7.063   2.657 -0.1396 -0.0415  0.2019
  726POSM   T1A 8100   1.984   6.842   2.860 -0.1183  0.2746  0.1846
  726POSM   C2A 8101   1.866   6.869   3.247 -0.1967  0.2419 -0.1650
  726POSM   C3A 8102   1.936   6.938   3.627 -0.1477  0.0507 -0.2148
  726POSM   C1B 8103   2.442   7.130   3.038 -0.1674 -0.2726  0.1661
  726POSM   D2B 8104   2.398   7.191   3.495 -0.0775 -0.0955 -0.2034
  726POSM   C3B 8105   2.664   7.215   3.793 -0.0194  0.1808 -0.2422
  726POSM   C4B 8106   2.852   7.529   4.155 -0.0261 -0.1646 -0.2071
  727POPC   NC3 8107   3.847  11.105   2.467 -0.1604 -0.0254 -0.2186
  727POPC   PO4 8108   3.687  10.847   2.714 -0.4867 -0.3335 -0.2951
  727POPC   GL1 8109   3.472  10.737   3.079 -0.2419 -0.2189  0.3936
  727POPC   GL2 8110   3.741  10.695   3.227  0.3743 -0.0241  0.0627
  727POPC   C1A 8111   3.279  10.644   3.480 -0.0276  0.3738  0.0579
  727POPC   D2A 8112   3.292  10.758   3.913 -0.0174  0.0844  0.2680
  727POPC   C3A 8113   3.649  10.520   4.156 -0.0492 -0.3258  0.1879
  727POPC   C4A 8114   3.951  10.524   4.518 -0.4204 -0.1487 -0.3330
  727POPC   C1B 8115   3.837  10.578   3.637 -0.1982 -0.0743  0.0942
  727POPC   C2B 8116   3.841  10.185   3.846 -0.2699 -0.1067  0.2243
  727POPC   C3B 8117   3.810   9.849   3.586  0.4858  0.2767  0.0202
  727POPC   C4B 8118   3.422   9.630   3.323 -0.2826  0.1955  0.0548
  728POPE   NH3 8119   4.819  12.584   1.896  0.1904 -0.0190  0.1186
  728POPE   PO4 8120   4.921  12.880   2.271  0.1629  0.0477  0.3017
  728POPE   GL1 8121   4.885  12.868   2.646 -0.0823 -0.1251  0.0635
  728POPE   GL2 8122   4.880  13.138   2.801 -0.0277  0.3060  0.3484
  728POPE   C1A 8123   4.728  12.589   2.984  0.0249  0.1175  0.0111
  728POPE   D2A 8124   4.657  12.518   3.447 -0.0450  0.2799  0.0280
  728POPE   C3A 8125   4.798  12.237   3.740  0.1140  0.2375 -0.1415
  728POPE   C4A 8126   5.206  12.271   3.960  0.3528  0.2636  0.2769
  728POPE   C1B 8127   4.545  13.005   3.163 -0.0601  0.1918  0.2038
  728POPE   C2B 8128   4.422  12.956   3.601 -0.0502  0.1588 -0.2425
  728POPE   C3B 8129   4.446  13.016   4.038 -0.0169 -0.0535 -0.1557
  728POPE   C4B 8130   4.385  13.081   4.506 -0.0462 -0.2091 -0.0357
  729POPE   NH3 8131   2.639   5.218   2.334  0.1931 -0.0708  0.0759
  729POPE   PO4 8132   2.209   5.418   2.260  0.0895 -0.1802  0.2293
  729POPE   GL1 8133   2.156   5.460   2.750 -0.2524  0.2749  0.1165
  729POPE   GL2 8134   2.461   5.470   2.786 -0.1416  0.0021  0.0758
  729POPE   C1A 8135   2.007   5.227   3.123  0.0650  0.3045  0.5173
  729POPE   D2A 8136   1.870   4.885   3.375  0.0213 -0.3214  0.1694
  729POPE   C3A 8137   1.939   4.952   3.806  0.0645  0.1047  0.2097
  729POPE   C4A 8138   1.717   4.940   4.136 -0.1063  0.2480  0.1235
  729POPE   C1B 8139   2.579   5.306   3.211 -0.0921  0.2693 -0.2315
  729POPE   C2B 8140   2.684   5.208   3.641  0.2326 -0.0452  0.2487
  729POPE   C3B 8141   2.794   5.218   4.139  0.0075  0.0067  0.2090
  729POPE   C4B 8142   2.835   5.273   4.468  0.0553  0.1000  0.2446
  730POPC   NC3 8143  12.405  11.719   2.058  0.2765 -0.0877 -0.2158
  730POPC   PO4 8144  12.553  11.730   2.454 -0.3873 -0.0567 -0.2195
  730POPC   GL1 8145  12.769  11.796   2.839  0.2307  0.1380  0.0275
  730POPC   GL2 8146  12.866  11.594   2.939  0.0429 -0.1101 -0.1628
  730POPC   C1A 8147  12.626  11.622   3.293  0.1374 -0.1005  0.0928
  730POPC   D2A 8148  12.571  11.583   3.798  0.0013 -0.2067 -0.1035
  730POPC   C3A 8149  12.837  11.626   4.092 -0.2926  0.0297  0.0652
  730POPC   C4A 8150  12.955  11.709   4.435 -0.0069 -0.2006  0.0431
  730POPC   C1B 8151  13.098  12.008   3.189  0.1128 -0.0932 -0.2492
  730POPC   C2B 8152  13.043  12.379   3.459 -0.0329  0.3213  0.4609
  730POPC   C3B 8153  13.173  12.600   3.787  0.1577 -0.2265 -0.1611
  730POPC   C4B 8154  13.420  12.832   3.998 -0.3082 -0.2013  0.0463
  731POPC   NC3 8155  14.385  11.249   2.376 -0.0117 -0.2458  0.0511
  731POPC   PO4 8156  14.686  11.383   2.651  0.1733  0.4112  0.1000
  731POPC   GL1 8157  14.385  11.387   2.998 -0.1359 -0.0118 -0.1428
  731POPC   GL2 8158  14.036  11.396   2.894 -0.0248  0.2019 -0.1374
  731POPC   C1A 8159  14.315  11.430   3.399  0.1068  0.0615 -0.2945
  731POPC   D2A 8160  14.207  11.557   3.837 -0.0521 -0.2359  0.0554
  731POPC   C3A 8161  14.372  11.931   4.069  0.0834  0.0013  0.2085
  731POPC   C4A 8162  14.376  11.982   4.598  0.1078  0.0770  0.2232
  731POPC   C1B 8163  14.055  11.031   3.223 -0.3325 -0.2883 -0.0595
  731POPC   C2B 8164  14.051  11.036   3.701 -0.0435 -0.2229 -0.2367
  731POPC   C3B 8165  14.005  11.084   4.202  0.0110  0.1283  0.1941
  731POPC   C4B 8166  13.986  11.139   4.609 -0.2737  0.2139 -0.0736
  732POPE   NH3 8167   8.996  14.115   2.043 -0.1096  0.0738  0.0732
  732POPE   PO4 8168   8.682  13.816   2.113  0.1713 -0.2027 -0.1765
  732POPE   GL1 8169   8.632  14.020   2.527 -0.2146 -0.0523 -0.2103
  732POPE   GL2 8170   8.859  14.208   2.546  0.0176  0.0457 -0.0599
  732POPE   C1A 8171   8.501  13.840   2.885  0.0245  0.3729  0.1704
  732POPE   D2A 8172   8.407  13.691   3.317 -0.4851 -0.1977 -0.1181
  732POPE   C3A 8173   8.723  13.732   3.668 -0.0441  0.1046  0.2438
  732POPE   C4A 8174   8.504  13.982   3.979  0.1719 -0.1149  0.2076
  732POPE   C1B 8175   9.071  14.458   2.893  0.0503  0.1420 -0.1220
  732POPE   C2B 8176   9.225  14.426   3.262 -0.1063 -0.0124 -0.0343
  732POPE   C3B 8177   9.345  14.384   3.711 -0.1770  0.1813  0.2285
  732POPE   C4B 8178   9.512  14.579   4.073 -0.1365  0.1611 -0.0663
  733POPE   NH3 8179   6.916   1.314   2.391 -0.0033  0.2416 -0.1651
  733POPE   PO4 8180   6.914   1.797   2.424  0.1690  0.0227  0.1721
  733POPE   GL1 8181   7.023   1.807   2.818  0.1760 -0.2947 -0.3124
  733POPE   GL2 8182   7.414   1.777   2.759 -0.0537  0.0478 -0.1487
  733POPE   C1A 8183   7.128   1.797   3.257 -0.0657  0.0551 -0.0566
  733POPE   D2A 8184   7.313   1.537   3.633  0.3820 -0.1834 -0.0101
  733POPE   C3A 8185   7.282   1.545   4.017 -0.0683  0.4943  0.0403
  733POPE   C4A 8186   7.192   1.745   4.306  0.0052 -0.2614 -0.0638
  733POPE   C1B 8187   7.614   2.048   3.091  0.0491  0.0143 -0.1127
  733POPE   C2B 8188   7.618   2.156   3.506 -0.2692 -0.1864  0.2503
  733POPE   C3B 8189   7.840   2.256   3.890 -0.2639 -0.2199  0.2049
  733POPE   C4B 8190   7.977   2.394   4.235 -0.1446  0.0878  0.0142
  734POPC   NC3 8191   7.808  13.608   2.154 -0.1154 -0.1500  0.0229
  734POPC   PO4 8192   7.622  13.871   2.556  0.2230  0.4306  0.2582
  734POPC   GL1 8193   7.717  14.114   2.866  0.2409  0.0515 -0.0263
  734POPC   GL2 8194   8.061  14.063   2.781 -0.1486 -0.2929  0.2395
  734POPC   C1A 8195   7.675  14.273   3.286 -0.2279 -0.1347 -0.0146
  734POPC   D2A 8196   7.821  14.331   3.597 -0.1011  0.1952  0.2718
  734POPC   C3A 8197   7.998  13.950   3.725 -0.1084  0.0311 -0.0604
  734POPC   C4A 8198   7.819  13.550   3.773  0.4879 -0.1442  0.0465
  734POPC   C1B 8199   8.144  14.151   3.191  0.0834  0.0522  0.3362
  734POPC   C2B 8200   8.313  14.273   3.605  0.0758 -0.4903  0.1271
  734POPC   C3B 8201   8.441  14.592   3.870  0.0134 -0.0414  0.1443
  734POPC   C4B 8202   8.254  14.528   4.353 -0.1683  0.3858 -0.1769
  735CHOL   ROH 8203   8.133   2.013   3.186  0.0348 -0.1464 -0.0043
  735CHOL    R1 8204   8.097   2.013   3.467 -0.0058 -0.4177 -0.0066
  735CHOL    R2 8205   8.220   1.828   3.632  0.3983 -0.2643 -0.1153
  735CHOL    R3 8206   8.309   2.051   3.760 -0.1203 -0.1330  0.0412
  735CHOL    R4 8207   8.375   1.829   3.941  0.4591 -0.1223 -0.1460
  735CHOL    R5 8208   8.262   2.009   3.991  0.0229 -0.4298  0.0210
  735CHOL    C1 8209   8.549   2.038   4.241  0.0077  0.0837 -0.0170
  735CHOL    C2 8210   8.679   2.287   4.560  0.0952 -0.2699  0.1692
  736CHOL   ROH 8211   2.994   3.466   2.893 -0.1161  0.1047 -0.0339
  736CHOL    R1 8212   2.914   3.357   3.142  0.2516 -0.0968  0.0037
  736CHOL    R2 8213   3.093   3.241   3.318  0.6368  0.3918 -0.0357
  736CHOL    R3 8214   2.987   3.420   3.494  0.2038  0.1362 -0.0259
  736CHOL    R4 8215   3.146   3.238   3.660  0.6185  0.4768 -0.0333
  736CHOL    R5 8216   2.936   3.289   3.688  0.4873 -0.0090 -0.0439
  736CHOL    C1 8217   3.077   3.404   4.023  0.2012  0.2863 -0.0228
  736CHOL    C2 8218   3.267   3.575   4.147 -0.0918 -0.2040  0.3134
  737POSM   NC3 8219   2.182   5.812   1.991  0.1213  0.2744  0.2245
  737POSM   PO4 8220   2.542   6.171   2.050 -0.1128  0.1972  0.0776
  737POSM   AM1 8221   2.357   6.138   2.438  0.0091  0.1107  0.0668
  737POSM   AM2 8222   2.178   5.877   2.494 -0.1118 -0.3316  0.0972
  737POSM   T1A 8223   2.365   6.334   2.847  0.0132 -0.0750 -0.0608
  737POSM   C2A 8224   2.298   6.600   3.196 -0.1202  0.0646 -0.0388
  737POSM   C3A 8225   2.376   6.689   3.657 -0.4059 -0.2376 -0.0880
  737POSM   C1B 8226   2.179   5.931   2.924 -0.0751 -0.1696  0.1579
  737POSM   D2B 8227   2.069   5.832   3.380 -0.3310 -0.0033 -0.0353
  737POSM   C3B 8228   2.349   6.106   3.557  0.0506 -0.3274 -0.1487
  737POSM   C4B 8229   2.749   6.205   3.779 -0.0832 -0.1447 -0.0483
  738POPS   CNO 8230  11.309  15.322   1.800 -0.2104 -0.0020 -0.2267
  738POPS   PO4 8231  11.332  15.122   2.187 -0.1429 -0.2914  0.1052
  738POPS   GL1 8232  11.373  15.089   2.507 -0.1347 -0.0109  0.2780
  738POPS   GL2 8233  11.200  15.369   2.663  0.0033  0.0555 -0.0293
  738POPS   C1A 8234  11.574  15.042   2.943  0.2848  0.1599  0.0099
  738POPS   D2A 8235  11.535  15.229   3.393 -0.3293  0.0193  0.1295
  738POPS   C3A 8236  11.548  15.086   3.739 -0.0256  0.1561  0.2115
  738POPS   C4A 8237  11.327  15.271   4.012  0.0931  0.0299 -0.2979
  738POPS   C1B 8238  11.058  15.303   3.133  0.2196  0.0148  0.1959
  738POPS   C2B 8239  11.084  15.430   3.564 -0.2623  0.0382  0.1914
  738POPS   C3B 8240  11.060  15.723   3.974  0.2507  0.0876  0.1060
  738POPS   C4B 8241  11.071  16.012   4.382 -0.0624 -0.1581  0.1242
  739CHOL   ROH 8242  14.782   5.201   2.920  0.0796 -0.1534  0.0867
  739CHOL    R1 8243  14.779   5.358   3.156  0.1445  0.0091 -0.0195
  739CHOL    R2 8244  14.791   5.247   3.409 -0.1662  0.1578  0.0648
  739CHOL    R3 8245  15.002   5.416   3.438  0.0497 -0.1091  0.0808
  739CHOL    R4 8246  14.999   5.257   3.684 -0.1995 -0.0763  0.1000
  739CHOL    R5 8247  15.000   5.474   3.670  0.0844 -0.0759  0.0745
  739CHOL    C1 8248  15.319   5.420   3.871 -0.0162 -0.4631  0.1355
  739CHOL    C2 8249  15.436   5.347   4.278  0.0539  0.0884 -0.0528
  740POPE   NH3 8250  13.498   5.440   2.540 -0.0450 -0.1578  0.0725
  740POPE   PO4 8251  13.313   5.135   2.719 -0.3899 -0.0688 -0.0825
  740POPE   GL1 8252  13.224   5.165   3.104  0.0935 -0.0995  0.0091
  740POPE   GL2 8253  13.192   4.796   3.086  0.1301 -0.0857 -0.0510
  740POPE   C1A 8254  13.254   5.208   3.489 -0.0775  0.0135 -0.0861
  740POPE   D2A 8255  13.027   5.248   3.790  0.1410  0.0464 -0.2521
  740POPE   C3A 8256  13.025   5.556   4.068  0.0427 -0.1299 -0.1573
  740POPE   C4A 8257  13.011   5.610   4.529 -0.2462 -0.1627  0.0846
  740POPE   C1B 8258  13.113   4.755   3.487  0.3492 -0.1173  0.0218
  740POPE   C2B 8259  13.098   4.773   4.007  0.2315 -0.0682  0.2740
  740POPE   C3B 8260  13.080   4.814   4.424 -0.1081  0.1333 -0.4244
  740POPE   C4B 8261  12.847   5.195   4.316  0.1492 -0.2234 -0.3392
  741CHOL   ROH 8262  12.197  15.263   2.731 -0.3818  0.1596 -0.0281
  741CHOL    R1 8263  12.104  15.373   2.975 -0.3433 -0.0577  0.0866
  741CHOL    R2 8264  12.006  15.216   3.181 -0.0153 -0.2674  0.0876
  741CHOL    R3 8265  12.193  15.348   3.327 -0.0682 -0.1090  0.0148
  741CHOL    R4 8266  12.019  15.224   3.526  0.0302 -0.1390  0.0840
  741CHOL    R5 8267  12.073  15.434   3.515 -0.0909 -0.1107  0.0025
  741CHOL    C1 8268  12.202  15.352   3.865  0.0070  0.0845  0.0135
  741CHOL    C2 8269  12.187  15.521   4.319 -0.3884  0.3287 -0.1781
  742POPS   CNO 8270  10.732  14.610   2.344 -0.3366  0.0819  0.3576
  742POPS   PO4 8271  10.879  15.035   2.408  0.4396 -0.2671 -0.6161
  742POPS   GL1 8272  10.863  14.864   2.811  0.1490  0.0083  0.1084
  742POPS   GL2 8273  11.200  14.720   2.808  0.1622 -0.1469  0.4589
  742POPS   C1A 8274  10.694  14.815   3.148  0.0863 -0.1454  0.0432
  742POPS   D2A 8275  10.647  14.744   3.610  0.0027 -0.0221 -0.2365
  742POPS   C3A 8276  10.357  14.881   4.004 -0.0729  0.0200 -0.0849
  742POPS   C4A 8277  10.315  15.226   4.315 -0.1405  0.1789 -0.1795
  742POPS   C1B 8278  11.171  14.875   3.232  0.0812  0.2055  0.3392
  742POPS   C2B 8279  11.130  14.873   3.636 -0.1541  0.3947 -0.0272
  742POPS   C3B 8280  10.857  15.007   3.987  0.1740 -0.0423 -0.2358
  742POPS   C4B 8281  10.665  14.840   4.416  0.1577  0.1270  0.0405
  743POPS   CNO 8282  14.747   9.523   2.116  0.4064  0.2248  0.0307
  743POPS   PO4 8283  14.955   9.065   2.169  0.3167  0.0202  0.3388
  743POPS   GL1 8284  15.265   8.903   2.549 -0.1866 -0.1235  0.2824
  743POPS   GL2 8285  15.154   9.173   2.634  0.0169  0.6003  0.3241
  743POPS   C1A 8286  15.164   8.751   2.929 -0.2609  0.1172 -0.1087
  743POPS   D2A 8287  15.093   8.491   3.285  0.0605  0.0573 -0.2128
  743POPS   C3A 8288  15.278   8.148   3.663  0.2938 -0.1292 -0.1018
  743POPS   C4A 8289  15.508   8.237   4.095  0.0110  0.0397 -0.0793
  743POPS   C1B 8290  14.961   9.215   2.967 -0.1215  0.1140 -0.2734
  743POPS   C2B 8291  15.008   8.985   3.354 -0.0702  0.2629  0.1761
  743POPS   C3B 8292  15.082   8.878   3.841 -0.2376 -0.1706 -0.0891
  743POPS   C4B 8293  14.972   8.757   4.201 -0.1535 -0.1461 -0.0865
  744POSM   NC3 8294   4.227   2.960   2.012 -0.0644 -0.1173 -0.0048
  744POSM   PO4 8295   4.456   2.678   2.287  0.0062 -0.4520 -0.1923
  744POSM   AM1 8296   4.156   2.599   2.568  0.0372 -0.1662  0.0308
  744POSM   AM2 8297   4.306   2.338   2.691 -0.2156  0.4643  0.0080
  744POSM   T1A 8298   3.825   2.607   2.887 -0.0584 -0.2387  0.2402
  744POSM   C2A 8299   3.818   2.609   3.344 -0.1966 -0.0194  0.1050
  744POSM   C3A 8300   3.890   2.887   3.727  0.1908  0.0232 -0.1905
  744POSM   C1B 8301   4.388   2.376   3.136 -0.0772  0.0324 -0.0787
  744POSM   D2B 8302   4.162   2.291   3.507  0.3689 -0.0144  0.0628
  744POSM   C3B 8303   4.214   2.476   3.946  0.2345  0.2603  0.0328
  744POSM   C4B 8304   4.046   2.400   4.316 -0.2066  0.1285  0.0482
  745POPE   NH3 8305  14.435   9.899   2.123  0.0144  0.1898  0.2114
  745POPE   PO4 8306  14.240   9.577   2.428 -0.2039 -0.0983 -0.1345
  745POPE   GL1 8307  14.395   9.665   2.896 -0.0443  0.0841 -0.2846
  745POPE   GL2 8308  14.724   9.624   3.014  0.3197  0.3322  0.1215
  745POPE   C1A 8309  14.192   9.620   3.321  0.3973  0.1668 -0.1660
  745POPE   D2A 8310  14.326   9.455   3.728  0.2464 -0.3002  0.0069
  745POPE   C3A 8311  14.465   9.884   3.985  0.2144  0.1310  0.2179
  745POPE   C4A 8312  14.515   9.940   4.375  0.1352  0.0104 -0.1572
  745POPE   C1B 8313  14.679   9.654   3.474  0.1935  0.0620 -0.0489
  745POPE   C2B 8314  14.860   9.485   3.775 -0.0928  0.1270 -0.0983
  745POPE   C3B 8315  14.827   9.267   4.087  0.0996  0.1797  0.1363
  745POPE   C4B 8316  15.028   9.292   4.415  0.1781 -0.1174  0.4862
  746POPS   CNO 8317   4.693   1.556   2.220 -0.2655 -0.3013  0.2099
  746POPS   PO4 8318   4.951   1.836   2.172  0.1436 -0.0274  0.3638
  746POPS   GL1 8319   4.792   1.859   2.660 -0.4373 -0.4674  0.1078
  746POPS   GL2 8320   4.987   1.950   2.844  0.1511 -0.0864  0.0121
  746POPS   C1A 8321   4.543   1.935   2.998  0.0515  0.0022 -0.0377
  746POPS   D2A 8322   4.540   1.967   3.378 -0.1767 -0.3785 -0.3511
  746POPS   C3A 8323   4.545   2.051   3.742 -0.0820 -0.0205 -0.0289
  746POPS   C4A 8324   4.793   2.187   4.009  0.3889  0.3305 -0.2354
  746POPS   C1B 8325   4.950   1.737   3.294  0.2164  0.2810  0.2801
  746POPS   C2B 8326   4.886   1.689   3.656 -0.0750  0.2674 -0.2322
  746POPS   C3B 8327   4.952   1.671   4.061  0.1637  0.0886  0.0536
  746POPS   C4B 8328   5.223   1.674   4.443 -0.0026  0.2676 -0.2668
  747POSM   NC3 8329   3.169  11.365   2.048 -0.0189  0.1237 -0.1181
  747POSM   PO4 8330   2.890  11.655   1.991  0.2554  0.1594  0.1506
  747POSM   AM1 8331   2.678  11.505   2.434  0.0413 -0.1023  0.0111
  747POSM   AM2 8332   3.009  11.535   2.516  0.0292 -0.1055  0.0526
  747POSM   T1A 8333   2.757  11.399   2.942  0.0339  0.0161  0.0971
  747POSM   C2A 8334   2.943  11.497   3.330  0.0113  0.0794  0.2696
  747POSM   C3A 8335   3.250  11.703   3.490  0.2444 -0.2299 -0.1190
  747POSM   C1B 8336   3.152  11.676   2.897 -0.1138 -0.0882 -0.1777
  747POSM   D2B 8337   3.590  11.646   3.062 -0.2920 -0.1739  0.2615
  747POSM   C3B 8338   3.697  11.655   3.460 -0.1879 -0.0792  0.1240
  747POSM   C4B 8339   3.725  11.790   3.834 -0.0382  0.0219 -0.0216
  748POSM   NC3 8340  14.221   7.626   2.515 -0.0786  0.3065 -0.0146
  748POSM   PO4 8341  13.903   7.360   2.753  0.0885 -0.2700  0.0770
  748POSM   AM1 8342  14.479   7.382   2.861  0.1983 -0.0688 -0.1193
  748POSM   AM2 8343  14.735   7.538   2.705  0.1322 -0.2074 -0.1095
  748POSM   T1A 8344  14.870   7.498   3.221  0.0667 -0.1154 -0.0525
  748POSM   C2A 8345  15.169   7.598   3.694 -0.2445 -0.1753 -0.0275
  748POSM   C3A 8346  15.583   7.430   3.656 -0.1446 -0.2078  0.0146
  748POSM   C1B 8347  15.185   7.486   2.835  0.1035 -0.4727 -0.0439
  748POSM   D2B 8348  15.706   7.443   2.779 -0.2775  0.0538  0.1646
  748POSM   C3B 8349  15.798   7.187   3.030  0.1092 -0.0282 -0.1069
  748POSM   C4B 8350  16.165   7.120   3.114  0.5117  0.2889  0.1835
  749CHOL   ROH 8351   3.781  12.461   2.592  0.1691  0.1973 -0.0229
  749CHOL    R1 8352   3.943  12.391   2.814  0.0651  0.1447  0.0363
  749CHOL    R2 8353   4.099  12.575   2.948  0.0115  0.1092  0.1429
  749CHOL    R3 8354   3.963  12.484   3.165 -0.0885  0.0723  0.0662
  749CHOL    R4 8355   4.205  12.607   3.276 -0.1358  0.0596  0.1968
  749CHOL    R5 8356   4.134  12.404   3.313 -0.1519  0.0494  0.1316
  749CHOL    C1 8357   4.140  12.539   3.670 -0.3155 -0.0039  0.1562
  749CHOL    C2 8358   4.398  12.569   3.873 -0.1409  0.1586  0.0812
  750POPS   CNO 8359  12.540  15.080   2.253  0.3287 -0.2896  0.3167
  750POPS   PO4 8360  12.319  14.921   2.379  0.0505  0.1322  0.2175
  750POPS   GL1 8361  12.262  14.683   2.669  0.0240  0.2332  0.2248
  750POPS   GL2 8362  11.990  14.810   2.834 -0.0448 -0.2688 -0.3455
  750POPS   C1A 8363  12.251  14.480   3.057 -0.0883  0.1678  0.0052
  750POPS   D2A 8364  12.136  14.348   3.349  0.1052 -0.1196 -0.0831
  750POPS   C3A 8365  12.092  14.138   3.605 -0.0382 -0.0600 -0.1929
  750POPS   C4A 8366  12.039  13.697   3.919  0.2048  0.0081 -0.1923
  750POPS   C1B 8367  11.840  14.762   3.239  0.0490 -0.4281  0.4214
  750POPS   C2B 8368  11.914  14.636   3.636  0.0215  0.0002 -0.2316
  750POPS   C3B 8369  11.925  14.896   3.950 -0.0734  0.3392  0.0791
  750POPS   C4B 8370  12.145  14.926   4.388  0.0573 -0.1376  0.0802
  751POSM   NC3 8371   3.650   2.483   2.301  0.0485 -0.0701 -0.2041
  751POSM   PO4 8372   3.846   3.004   2.304 -0.4763  0.0921 -0.0182
  751POSM   AM1 8373   3.732   3.341   2.572 -0.1368  0.1623  0.0537
  751POSM   AM2 8374   3.371   3.438   2.544 -0.0687 -0.2004 -0.0199
  751POSM   T1A 8375   3.797   3.386   3.093  0.4256  0.0899 -0.1935
  751POSM   C2A 8376   3.721   3.209   3.440 -0.1363  0.4522  0.2070
  751POSM   C3A 8377   3.627   3.295   3.885 -0.1129  0.0225 -0.3670
  751POSM   C1B 8378   3.362   3.193   2.968 -0.1375 -0.2019  0.1898
  751POSM   D2B 8379   3.433   2.831   3.217  0.0147 -0.0296 -0.0176
  751POSM   C3B 8380   3.449   2.635   3.646 -0.0625 -0.0048 -0.0923
  751POSM   C4B 8381   3.591   2.517   4.100  0.0143 -0.0838  0.0837
  752POPE   NH3 8382   9.841  14.765   1.899 -0.0564  0.0356 -0.0864
  752POPE   PO4 8383  10.239  14.907   1.990 -0.0297  0.0551 -0.0805
  752POPE   GL1 8384  10.215  14.899   2.509 -0.1270  0.2777  0.0634
  752POPE   GL2 8385  10.411  14.982   2.647 -0.1783 -0.0510 -0.2358
  752POPE   C1A 8386   9.882  15.081   2.729 -0.0817  0.1514 -0.0895
  752POPE   D2A 8387   9.449  15.247   2.977  0.1155 -0.2246 -0.0280
  752POPE   C3A 8388   9.438  15.313   3.428 -0.0175  0.0160  0.0398
  752POPE   C4A 8389   9.345  15.254   3.865  0.1706  0.0310 -0.0656
  752POPE   C1B 8390  10.234  14.973   3.094  0.1327  0.2243 -0.0919
  752POPE   C2B 8391  10.129  14.894   3.483 -0.1049  0.0186 -0.0269
  752POPE   C3B 8392   9.997  14.559   3.757 -0.0558  0.3424 -0.3307
  752POPE   C4B 8393   9.892  14.277   3.933 -0.1614 -0.0323 -0.2788
  753POSM   NC3 8394   7.047   0.372   2.600  0.1933 -0.0276  0.0142
  753POSM   PO4 8395   7.005   0.802   2.449  0.3429 -0.1398  0.1651
  753POSM   AM1 8396   6.629   0.896   2.712  0.0730 -0.2588  0.0808
  753POSM   AM2 8397   6.418   1.203   2.747 -0.0634 -0.1824 -0.2485
  753POSM   T1A 8398   6.255   0.796   3.058 -0.0126 -0.0236 -0.1692
  753POSM   C2A 8399   6.017   1.014   3.206  0.4208 -0.0901 -0.1633
  753POSM   C3A 8400   5.981   1.386   2.954  0.4127 -0.1119 -0.2361
  753POSM   C1B 8401   6.383   1.439   3.169  0.0405  0.2916  0.2696
  753POSM   D2B 8402   6.391   1.539   3.654 -0.2547  0.0777 -0.0875
  753POSM   C3B 8403   6.028   1.595   3.989  0.2575 -0.1565  0.2052
  753POSM   C4B 8404   5.570   1.592   4.073 -0.1412  0.0877 -0.0951
  754POSM   NC3 8405  14.137  10.808   2.185 -0.0092 -0.2157 -0.1386
  754POSM   PO4 8406  14.225  10.362   2.092  0.2321  0.1561 -0.1303
  754POSM   AM1 8407  14.226  10.091   2.486  0.1693 -0.0974  0.0720
  754POSM   AM2 8408  14.221  10.206   2.737 -0.1514  0.1701 -0.1267
  754POSM   T1A 8409  13.933   9.816   2.774  0.0907  0.3831  0.0995
  754POSM   C2A 8410  13.744   9.831   3.176 -0.2873 -0.1238  0.1720
  754POSM   C3A 8411  13.444   9.796   3.385  0.0866 -0.0459 -0.0439
  754POSM   C1B 8412  14.309  10.136   3.076 -0.0469 -0.1065  0.0043
  754POSM   D2B 8413  14.436  10.072   3.457 -0.2584  0.1067  0.1619
  754POSM   C3B 8414  14.862  10.057   3.571  0.1227 -0.0994 -0.0346
  754POSM   C4B 8415  15.158   9.897   3.801 -0.1667  0.3064 -0.0387
  755POPE   NH3 8416  14.420   7.141   1.937  0.0051 -0.1811  0.1085
  755POPE   PO4 8417  14.584   7.291   2.292  0.1387  0.1633  0.0397
  755POPE   GL1 8418  14.740   6.996   2.709  0.0889  0.0456  0.3047
  755POPE   GL2 8419  14.527   6.862   2.928 -0.0742  0.0995 -0.0274
  755POPE   C1A 8420  14.982   7.024   2.983 -0.0444  0.1112 -0.2174
  755POPE   D2A 8421  15.088   7.066   3.525 -0.1696 -0.0228 -0.0110
  755POPE   C3A 8422  14.811   6.886   3.773  0.1191  0.0033  0.0116
  755POPE   C4A 8423  14.365   6.931   3.816  0.0399  0.0804  0.0059
  755POPE   C1B 8424  14.585   7.061   3.335  0.1515 -0.3472 -0.3829
  755POPE   C2B 8425  14.667   7.414   3.674 -0.2586 -0.1652 -0.0847
  755POPE   C3B 8426  14.337   7.478   3.947 -0.1418 -0.0411 -0.0986
  755POPE   C4B 8427  13.960   7.303   4.038  0.2083  0.3044 -0.2885
  756POSM   NC3 8428  10.952   2.664   2.197 -0.1750  0.2813  0.0329
  756POSM   PO4 8429  11.130   3.031   2.420 -0.0158 -0.2613 -0.0056
  756POSM   AM1 8430  11.280   3.105   2.795  0.2440 -0.1630  0.3699
  756POSM   AM2 8431  11.500   3.327   3.001 -0.2608  0.0468 -0.0848
  756POSM   T1A 8432  11.096   3.184   3.266  0.0828  0.0359  0.0460
  756POSM   C2A 8433  11.255   3.160   3.582  0.1116 -0.0406  0.3045
  756POSM   C3A 8434  11.435   2.918   3.969 -0.0725 -0.0980  0.0361
  756POSM   C1B 8435  11.528   2.906   3.127 -0.0407 -0.0147 -0.3517
  756POSM   D2B 8436  11.742   2.899   3.558  0.2054  0.0462  0.0938
  756POSM   C3B 8437  11.895   3.103   4.023  0.1582 -0.0624  0.1409
  756POSM   C4B 8438  11.615   3.104   4.357  0.1871 -0.1617 -0.1128
  757POPC   NC3 8439   5.100  14.086   2.444 -0.0143 -0.1446 -0.0152
  757POPC   PO4 8440   5.515  14.244   2.531 -0.0607 -0.1190 -0.0545
  757POPC   GL1 8441   5.341  14.335   2.956  0.1446  0.2785 -0.0158
  757POPC   GL2 8442   5.166  14.686   3.084  0.0562  0.0781 -0.0756
  757POPC   C1A 8443   5.259  14.313   3.454 -0.0209 -0.0241 -0.0668
  757POPC   D2A 8444   5.083  14.234   3.794  0.2417 -0.1287 -0.0161
  757POPC   C3A 8445   5.287  14.167   4.186  0.0961 -0.1564  0.2269
  757POPC   C4A 8446   5.333  14.174   4.589 -0.0044  0.0399  0.0452
  757POPC   C1B 8447   5.137  14.893   3.516  0.0973  0.0300  0.0820
  757POPC   C2B 8448   5.117  15.012   3.960 -0.0050  0.2678 -0.1560
  757POPC   C3B 8449   5.074  14.954   4.328  0.0188 -0.1583 -0.0350
  757POPC   C4B 8450   4.741  14.956   4.442  0.1829  0.2310  0.3898
  758CHOL   ROH 8451  10.716   3.507   3.077  0.1366 -0.0939 -0.0278
  758CHOL    R1 8452  10.670   3.480   3.356  0.2573  0.1109  0.0150
  758CHOL    R2 8453  10.681   3.695   3.529  0.0451  0.3015 -0.1837
  758CHOL    R3 8454  10.432   3.611   3.598  0.1668  0.0493 -0.0435
  758CHOL    R4 8455  10.548   3.713   3.848  0.2164  0.0770 -0.0974
  758CHOL    R5 8456  10.460   3.516   3.817  0.3835  0.0113 -0.0941
  758CHOL    C1 8457  10.237   3.645   4.098  0.4303 -0.2905  0.0845
  758CHOL    C2 8458  10.386   3.780   4.426 -0.1225  0.1218 -0.2942
  759POSM   NC3 8459  13.360  12.174   1.568 -0.1475 -0.0508 -0.1033
  759POSM   PO4 8460  13.347  12.056   2.036 -0.0207  0.0280 -0.3890
  759POSM   AM1 8461  13.548  11.937   2.372  0.0742 -0.2066 -0.1059
  759POSM   AM2 8462  13.818  12.145   2.427 -0.1058 -0.1109 -0.1052
  759POSM   T1A 8463  13.537  12.263   2.847 -0.1169 -0.1160 -0.2728
  759POSM   C2A 8464  13.828  12.258   3.199  0.1681  0.2000  0.0222
  759POSM   C3A 8465  14.210  12.533   3.381  0.1729 -0.0643 -0.1490
  759POSM   C1B 8466  13.930  11.880   2.826  0.2027 -0.1343 -0.3328
  759POSM   D2B 8467  14.098  11.852   3.173  0.1450 -0.0673 -0.2153
  759POSM   C3B 8468  13.887  11.815   3.602 -0.2112  0.0240  0.0891
  759POSM   C4B 8469  13.752  11.934   4.074 -0.1758  0.4692 -0.1123
  760POSM   NC3 8470   3.959  13.109   1.923 -0.0195 -0.1492 -0.0565
  760POSM   PO4 8471   3.756  12.784   2.182  0.0311 -0.2573 -0.1922
  760POSM   AM1 8472   3.858  12.932   2.649  0.0649  0.3525  0.0494
  760POSM   AM2 8473   3.664  13.169   2.674 -0.3724 -0.0479 -0.4396
  760POSM   T1A 8474   4.056  13.085   3.000 -0.0057  0.0712 -0.2917
  760POSM   C2A 8475   4.171  13.295   3.359  0.0866 -0.3781 -0.0964
  760POSM   C3A 8476   4.106  13.290   3.792  0.1075  0.1311  0.2097
  760POSM   C1B 8477   3.626  13.263   3.096  0.1343  0.2342 -0.1831
  760POSM   D2B 8478   3.654  13.276   3.516  0.1913  0.0866  0.0130
  760POSM   C3B 8479   3.517  13.246   3.981  0.0851  0.3575 -0.0972
  760POSM   C4B 8480   3.201  13.282   4.294  0.4061 -0.0654 -0.0003
  761POPS   CNO 8481   2.242   7.951   2.263  0.1640  0.2760  0.1020
  761POPS   PO4 8482   2.051   8.345   2.356  0.0764  0.2601 -0.0320
  761POPS   GL1 8483   2.101   8.222   2.720  0.0111  0.2222 -0.0896
  761POPS   GL2 8484   2.389   8.270   2.861  0.4331  0.1818 -0.0831
  761POPS   C1A 8485   2.080   7.888   3.063  0.1315 -0.0558 -0.0374
  761POPS   D2A 8486   2.338   7.963   3.497 -0.0290 -0.1632 -0.0272
  761POPS   C3A 8487   2.399   7.653   3.821  0.6052 -0.0416  0.1893
  761POPS   C4A 8488   2.322   7.475   4.337 -0.3929  0.0592 -0.2204
  761POPS   C1B 8489   2.592   8.291   3.212 -0.1044 -0.2386 -0.1996
  761POPS   C2B 8490   2.606   8.459   3.612  0.3968 -0.3895  0.1812
  761POPS   C3B 8491   2.559   8.548   3.982 -0.0925 -0.0317 -0.1056
  761POPS   C4B 8492   2.603   8.854   4.254  0.3449  0.2214 -0.1637
  762CHOL   ROH 8493   8.561  14.344   2.910 -0.2497 -0.0643 -0.1998
  762CHOL    R1 8494   8.557  14.591   3.047 -0.1126 -0.0700 -0.1833
  762CHOL    R2 8495   8.397  14.636   3.268 -0.0842  0.0023 -0.1740
  762CHOL    R3 8496   8.632  14.708   3.384 -0.0403 -0.1342 -0.1769
  762CHOL    R4 8497   8.440  14.914   3.469  0.0582 -0.0831 -0.0852
  762CHOL    R5 8498   8.632  14.948   3.372  0.0599 -0.1309 -0.0959
  762CHOL    C1 8499   8.685  15.144   3.695  0.1823 -0.2609 -0.0362
  762CHOL    C2 8500   8.838  15.172   4.037 -0.0602 -0.1593  0.0565
  763CHOL   ROH 8501   9.777   1.473   2.693 -0.2326 -0.1885 -0.1555
  763CHOL    R1 8502   9.745   1.507   2.972 -0.1558  0.0298 -0.1683
  763CHOL    R2 8503   9.508   1.451   3.103 -0.0812 -0.0319 -0.0373
  763CHOL    R3 8504   9.667   1.293   3.256  0.0977  0.2057  0.0382
  763CHOL    R4 8505   9.405   1.284   3.387 -0.0028 -0.3336 -0.1843
  763CHOL    R5 8506   9.595   1.336   3.481 -0.1698 -0.0086 -0.0017
  763CHOL    C1 8507   9.494   1.038   3.696  0.2107 -0.2862 -0.1990
  763CHOL    C2 8508   9.227   1.066   3.920  0.0231  0.1529  0.0916
  764POPS   CNO 8509   2.122   9.283   2.484 -0.0674 -0.1145  0.1471
  764POPS   PO4 8510   2.299   8.973   2.308  0.1968  0.1465  0.2362
  764POPS   GL1 8511   2.368   8.833   2.770  0.1654  0.2022  0.0690
  764POPS   GL2 8512   2.266   9.109   2.965  0.3489  0.0614 -0.1629
  764POPS   C1A 8513   2.334   8.699   3.267  0.1338 -0.2532 -0.1598
  764POPS   D2A 8514   2.152   8.391   3.407 -0.0300 -0.1405  0.1642
  764POPS   C3A 8515   2.129   8.298   3.859  0.0131 -0.1840  0.1332
  764POPS   C4A 8516   2.375   8.078   4.185 -0.0308 -0.0012  0.2756
  764POPS   C1B 8517   2.102   9.125   3.351 -0.1807  0.0523  0.1617
  764POPS   C2B 8518   2.203   8.915   3.723  0.0020  0.1432 -0.0129
  764POPS   C3B 8519   2.094   8.747   4.191  0.0038  0.0691  0.1061
  764POPS   C4B 8520   2.040   8.744   4.601  0.1912 -0.0682 -0.1199
  765CHOL   ROH 8521   1.899   6.280   2.627 -0.0507  0.0597  0.1092
  765CHOL    R1 8522   1.854   6.359   2.896 -0.0702 -0.0141  0.1281
  765CHOL    R2 8523   1.727   6.196   3.080  0.0134 -0.1092  0.1041
  765CHOL    R3 8524   1.952   6.241   3.226  0.0032 -0.0374  0.0977
  765CHOL    R4 8525   1.734   6.251   3.421  0.0100 -0.1148  0.1051
  765CHOL    R5 8526   1.886   6.404   3.388 -0.0433 -0.0642  0.1039
  765CHOL    C1 8527   1.949   6.325   3.756 -0.0015 -0.0506  0.0996
  765CHOL    C2 8528   2.043   6.569   4.054 -0.2494 -0.1651  0.3915
  766POPC   NC3 8529   6.592  14.491   2.106 -0.1098 -0.0572 -0.0531
  766POPC   PO4 8530   6.324  14.758   2.476  0.2534 -0.1077  0.0738
  766POPC   GL1 8531   6.177  14.661   2.896 -0.2835 -0.2092 -0.0880
  766POPC   GL2 8532   5.954  14.445   2.948 -0.1550  0.3626  0.0779
  766POPC   C1A 8533   6.339  14.483   3.278  0.2363  0.0951  0.1080
  766POPC   D2A 8534   6.160  14.217   3.517  0.2218 -0.0843  0.1122
  766POPC   C3A 8535   6.174  13.805   3.810 -0.2450 -0.3510  0.0680
  766POPC   C4A 8536   6.016  13.469   3.940 -0.1932 -0.2460  0.0993
  766POPC   C1B 8537   5.771  14.371   3.228  0.0488 -0.1925  0.2290
  766POPC   C2B 8538   5.618  14.601   3.524  0.1935  0.3896  0.1146
  766POPC   C3B 8539   5.402  14.593   3.918 -0.1126 -0.0294  0.0533
  766POPC   C4B 8540   5.445  14.587   4.335  0.0824 -0.5914 -0.2845
  767CHOL   ROH 8541  12.776   3.926   3.139 -0.0091  0.1731  0.0218
  767CHOL    R1 8542  12.824   3.937   3.417 -0.2285  0.2940  0.0571
  767CHOL    R2 8543  12.620   3.947   3.603 -0.3941 -0.1868 -0.0908
  767CHOL    R3 8544  12.747   3.730   3.707  0.0556  0.1066  0.0027
  767CHOL    R4 8545  12.607   3.851   3.935 -0.4594 -0.2432 -0.1082
  767CHOL    R5 8546  12.820   3.802   3.924 -0.3126  0.2783  0.0780
  767CHOL    C1 8547  12.719   3.592   4.226 -0.0753 -0.0006 -0.0304
  767CHOL    C2 8548  12.612   3.757   4.634  0.2050  0.1098 -0.4753
  768POPE   NH3 8549   2.098   3.832   2.349  0.3789 -0.2916 -0.0237
  768POPE   PO4 8550   2.535   3.879   2.474 -0.0407 -0.1816  0.0594
  768POPE   GL1 8551   2.784   3.974   2.741  0.1783  0.1101 -0.1378
  768POPE   GL2 8552   3.205   3.924   2.657 -0.0305 -0.2312  0.2181
  768POPE   C1A 8553   2.886   3.918   3.220 -0.0032  0.0338  0.0947
  768POPE   D2A 8554   3.038   3.875   3.688  0.2039  0.1256  0.1361
  768POPE   C3A 8555   2.801   3.773   4.000 -0.1004  0.1381 -0.2813
  768POPE   C4A 8556   2.442   3.652   4.318 -0.0026 -0.0526 -0.0585
  768POPE   C1B 8557   3.434   3.667   2.950 -0.0676  0.0829 -0.0414
  768POPE   C2B 8558   3.386   3.615   3.316 -0.0909 -0.1532  0.0200
  768POPE   C3B 8559   3.534   3.785   3.657  0.2048  0.1430  0.0007
  768POPE   C4B 8560   3.927   3.827   3.797 -0.1132  0.4862 -0.1195
  769POPE   NH3 8561   7.885   1.679   2.417  0.1163  0.0761  0.3065
  769POPE   PO4 8562   8.231   1.777   2.459 -0.2945 -0.0800  0.3207
  769POPE   GL1 8563   8.208   1.669   2.826  0.0267  0.1730 -0.2574
  769POPE   GL2 8564   8.499   1.529   2.835 -0.1782 -0.2280  0.1269
  769POPE   C1A 8565   8.183   1.490   3.234  0.1508  0.0579 -0.1406
  769POPE   D2A 8566   8.397   1.352   3.584 -0.2563 -0.0665 -0.0010
  769POPE   C3A 8567   8.170   1.368   3.987 -0.3093  0.1315 -0.1625
  769POPE   C4A 8568   8.172   1.695   4.352 -0.3245  0.0596 -0.3028
  769POPE   C1B 8569   8.913   1.654   2.809  0.0275 -0.0123 -0.2125
  769POPE   C2B 8570   9.126   1.687   3.262  0.2414 -0.0556  0.0843
  769POPE   C3B 8571   9.270   1.734   3.645  0.1035  0.0120 -0.0140
  769POPE   C4B 8572   9.193   1.512   4.037  0.1386 -0.1497  0.1562
  770POPC   NC3 8573  13.525  12.988   2.100 -0.0882 -0.1881  0.1911
  770POPC   PO4 8574  13.588  12.565   2.173 -0.0603 -0.0186  0.0459
  770POPC   GL1 8575  13.624  12.720   2.633  0.1755 -0.0360 -0.1821
  770POPC   GL2 8576  13.746  13.097   2.595  0.1553 -0.2961 -0.0938
  770POPC   C1A 8577  13.653  12.723   3.010  0.2663  0.1073 -0.1596
  770POPC   D2A 8578  13.476  12.726   3.377  0.2063  0.0660 -0.0322
  770POPC   C3A 8579  13.029  12.909   3.397 -0.1228 -0.0618 -0.0321
  770POPC   C4A 8580  12.745  13.120   3.073  0.1485  0.1579 -0.2745
  770POPC   C1B 8581  13.745  13.432   2.939  0.3321  0.0520  0.1735
  770POPC   C2B 8582  13.778  13.613   3.270 -0.2701  0.1355 -0.1889
  770POPC   C3B 8583  13.762  13.540   3.729 -0.0434 -0.3136  0.1234
  770POPC   C4B 8584  13.471  13.472   4.025  0.2205 -0.0334  0.2137
  771CHOL   ROH 8585  14.377   5.001   2.994 -0.0396  0.0250  0.1350
  771CHOL    R1 8586  14.385   4.914   3.263 -0.0698  0.0071  0.1316
  771CHOL    R2 8587  14.321   5.080   3.475  0.0292  0.0341  0.1484
  771CHOL    R3 8588  14.147   4.879   3.537 -0.0745  0.1222  0.1405
  771CHOL    R4 8589  14.207   5.008   3.793  0.1405 -0.0463  0.1695
  771CHOL    R5 8590  14.226   4.796   3.747 -0.0273 -0.0335  0.0583
  771CHOL    C1 8591  13.978   4.778   4.037  0.1080 -0.0104  0.1744
  771CHOL    C2 8592  13.862   5.124   4.278 -0.3672  0.1597 -0.0130
  772POPC   NC3 8593   1.762   7.168   1.999  0.2987  0.1411  0.1045
  772POPC   PO4 8594   1.595   7.364   2.330 -0.1589  0.0447 -0.4521
  772POPC   GL1 8595   1.703   7.424   2.696 -0.1746  0.0580 -0.1451
  772POPC   GL2 8596   1.605   7.700   2.861  0.1356 -0.1226 -0.1604
  772POPC   C1A 8597   1.947   7.339   3.038 -0.0860  0.2253  0.2132
  772POPC   D2A 8598   1.986   7.473   3.446  0.0714  0.3934  0.0226
  772POPC   C3A 8599   1.911   7.385   3.836 -0.0402  0.2998 -0.2347
  772POPC   C4A 8600   2.258   7.058   4.036  0.2405 -0.0059  0.0244
  772POPC   C1B 8601   1.639   7.796   3.281  0.0139 -0.0243 -0.1369
  772POPC   C2B 8602   1.838   7.892   3.668 -0.1192  0.1439  0.2536
  772POPC   C3B 8603   1.745   8.089   3.967  0.0135 -0.1448  0.1492
  772POPC   C4B 8604   1.739   8.387   4.270  0.2943  0.2257 -0.2846
  773POPC   NC3 8605   2.989  12.134   1.821 -0.0339 -0.0724 -0.0259
  773POPC   PO4 8606   2.962  12.459   2.239 -0.2038 -0.1228 -0.0536
  773POPC   GL1 8607   3.178  12.545   2.599  0.2567  0.0589  0.1351
  773POPC   GL2 8608   3.395  12.743   2.607 -0.3144  0.2733 -0.2080
  773POPC   C1A 8609   3.108  12.537   3.075 -0.0451 -0.1137  0.1172
  773POPC   D2A 8610   3.203  12.755   3.386 -0.0951  0.3034  0.1767
  773POPC   C3A 8611   3.362  12.672   3.771 -0.4478  0.0070 -0.1959
  773POPC   C4A 8612   3.462  12.652   4.190 -0.0988  0.1056 -0.0410
  773POPC   C1B 8613   3.572  12.762   3.071  0.0835  0.1612 -0.1018
  773POPC   C2B 8614   3.759  12.821   3.436  0.0828 -0.1862  0.1213
  773POPC   C3B 8615   3.833  12.851   3.890  0.0165 -0.2964  0.1418
  773POPC   C4B 8616   3.903  13.148   4.274 -0.0179 -0.1363 -0.1995
  774POPS   CNO 8617   9.910  15.233   2.267 -0.0162  0.1363  0.0940
  774POPS   PO4 8618   9.500  15.273   2.305 -0.1764  0.4268  0.2484
  774POPS   GL1 8619   9.282  14.938   2.596  0.0201  0.0262 -0.1789
  774POPS   GL2 8620   8.929  14.982   2.822 -0.0565 -0.1275  0.1682
  774POPS   C1A 8621   9.536  14.779   2.905 -0.3300 -0.0216 -0.2608
  774POPS   D2A 8622   9.754  14.943   3.204  0.0667  0.0700 -0.0989
  774POPS   C3A 8623   9.657  14.926   3.620 -0.0761  0.1408  0.0655
  774POPS   C4A 8624   9.773  14.995   3.984  0.0978  0.2026  0.1193
  774POPS   C1B 8625   9.130  14.903   3.165  0.1230 -0.2506  0.0058
  774POPS   C2B 8626   9.121  14.811   3.560 -0.3436  0.1075 -0.2420
  774POPS   C3B 8627   8.931  14.723   3.895  0.0539  0.1621  0.0831
  774POPS   C4B 8628   8.767  14.380   4.220  0.0186 -0.1026 -0.4408
  775POSM   NC3 8629  15.184  10.761   2.166 -0.4013 -0.1198  0.0454
  775POSM   PO4 8630  14.712  10.886   2.290 -0.0222 -0.2871  0.0394
  775POSM   AM1 8631  14.624  10.913   2.757 -0.1187  0.0599 -0.1137
  775POSM   AM2 8632  14.250  10.930   2.712  0.0694 -0.0249  0.0621
  775POSM   T1A 8633  14.597  10.996   3.213 -0.1164 -0.1697 -0.0329
  775POSM   C2A 8634  14.556  11.023   3.565  0.0379 -0.0654 -0.0889
  775POSM   C3A 8635  14.474  10.955   3.937  0.0797  0.1498 -0.0546
  775POSM   C1B 8636  14.166  10.602   3.053  0.2655  0.1215 -0.0377
  775POSM   D2B 8637  13.975  10.519   3.505  0.1546 -0.4918  0.0870
  775POSM   C3B 8638  13.960  10.119   3.537 -0.3541 -0.0303 -0.1130
  775POSM   C4B 8639  13.890   9.795   3.704 -0.0423  0.0604 -0.2168
  776POPC   NC3 8640   2.738  10.312   2.025  0.2903  0.1058  0.2596
  776POPC   PO4 8641   2.886  10.239   2.400 -0.2008 -0.1875  0.1891
  776POPC   GL1 8642   2.887  10.295   2.814 -0.0005 -0.2106 -0.0606
  776POPC   GL2 8643   3.170  10.173   2.937  0.2158  0.1674  0.1045
  776POPC   C1A 8644   2.747  10.368   3.218 -0.2830  0.0070 -0.1200
  776POPC   D2A 8645   2.629  10.641   3.651  0.1615  0.3067 -0.4225
  776POPC   C3A 8646   2.776  10.523   4.071 -0.0170 -0.1161  0.2548
  776POPC   C4A 8647   3.067  10.510   4.307 -0.0976 -0.1808  0.1443
  776POPC   C1B 8648   2.997   9.934   3.312 -0.1531  0.3669  0.0661
  776POPC   C2B 8649   2.885  10.111   3.761 -0.1338 -0.3297 -0.1289
  776POPC   C3B 8650   2.923   9.931   4.136 -0.0084  0.2432  0.1404
  776POPC   C4B 8651   3.007  10.057   4.611 -0.4482 -0.0350 -0.0441
  777POPC   NC3 8652   7.379   1.046   2.219  0.1974  0.0251 -0.0635
  777POPC   PO4 8653   7.442   1.410   2.394 -0.1611 -0.1412 -0.0840
  777POPC   GL1 8654   7.167   1.325   2.907 -0.3147 -0.0325 -0.1673
  777POPC   GL2 8655   6.837   1.311   2.977  0.3080 -0.4068 -0.1240
  777POPC   C1A 8656   7.287   1.182   3.251 -0.0934  0.0723 -0.1821
  777POPC   D2A 8657   7.248   0.994   3.634  0.1447  0.3418 -0.4269
  777POPC   C3A 8658   6.841   1.158   3.874 -0.0036 -0.1280 -0.2267
  777POPC   C4A 8659   6.547   1.422   4.097 -0.0976  0.0469 -0.0196
  777POPC   C1B 8660   6.850   1.382   3.374  0.2112  0.3565 -0.1674
  777POPC   C2B 8661   6.859   1.676   3.703  0.0818  0.1284 -0.0948
  777POPC   C3B 8662   6.771   1.991   4.024  0.1431 -0.2478 -0.2165
  777POPC   C4B 8663   6.825   2.404   3.876 -0.4007  0.1831 -0.0802
  778POSM   NC3 8664   9.018   1.881   1.959  0.1280 -0.3049  0.0062
  778POSM   PO4 8665   9.529   1.706   1.851 -0.0763  0.0165 -0.1732
  778POSM   AM1 8666   9.368   1.506   2.261  0.1059 -0.0455  0.0585
  778POSM   AM2 8667   9.215   1.775   2.455 -0.0143 -0.0855 -0.1408
  778POSM   T1A 8668   9.344   1.287   2.640 -0.1506 -0.0689  0.0473
  778POSM   C2A 8669   9.155   1.026   3.071 -0.2478 -0.1191 -0.3050
  778POSM   C3A 8670   9.033   0.830   3.445  0.0489 -0.2569 -0.3507
  778POSM   C1B 8671   9.428   1.862   2.828 -0.1231  0.0617 -0.1648
  778POSM   D2B 8672   9.623   1.915   3.278  0.0649 -0.1515  0.0048
  778POSM   C3B 8673  10.051   1.710   3.419  0.2845  0.0112 -0.3826
  778POSM   C4B 8674  10.297   1.347   3.688  0.0289 -0.1543 -0.1459
  779POPE   NH3 8675   3.282  10.525   2.560 -0.0100 -0.0412 -0.0146
  779POPE   PO4 8676   3.404  10.933   2.334  0.0092  0.2713 -0.0831
  779POPE   GL1 8677   3.241  11.034   2.578  0.0868  0.1317  0.0238
  779POPE   GL2 8678   2.993  10.924   2.726 -0.3677  0.0937 -0.0681
  779POPE   C1A 8679   3.312  11.243   3.018  0.0932 -0.1462 -0.0160
  779POPE   D2A 8680   3.329  11.169   3.416 -0.2869  0.0553 -0.0149
  779POPE   C3A 8681   3.429  11.366   3.827 -0.0673  0.1885 -0.1458
  779POPE   C4A 8682   3.790  11.463   4.187 -0.0643  0.1221  0.3250
  779POPE   C1B 8683   2.933  10.910   3.167  0.3487  0.0150  0.2250
  779POPE   C2B 8684   2.939  11.015   3.600  0.1193  0.2252 -0.2221
  779POPE   C3B 8685   3.004  11.148   4.048 -0.1711 -0.0841 -0.1602
  779POPE   C4B 8686   2.774  11.387   4.417 -0.1115 -0.2467  0.3110
  780POPE   NH3 8687   5.510  15.692   2.507 -0.2504 -0.2211 -0.0351
  780POPE   PO4 8688   5.482  15.181   2.392  0.2047  0.3502 -0.0253
  780POPE   GL1 8689   5.365  15.161   2.826  0.2680 -0.2977  0.3759
  780POPE   GL2 8690   5.233  15.384   2.871 -0.0529 -0.2827  0.2866
  780POPE   C1A 8691   5.627  14.984   3.245  0.2174  0.1760  0.1592
  780POPE   D2A 8692   6.031  14.889   3.391 -0.0791  0.1331 -0.5101
  780POPE   C3A 8693   6.016  14.681   3.807  0.4788  0.0630 -0.1270
  780POPE   C4A 8694   5.840  14.334   4.055 -0.0889 -0.1864 -0.1182
  780POPE   C1B 8695   5.161  15.307   3.250 -0.3205  0.1024  0.1455
  780POPE   C2B 8696   5.201  15.449   3.588  0.2262  0.0395  0.1621
  780POPE   C3B 8697   5.188  15.531   4.070  0.1576 -0.2440 -0.0082
  780POPE   C4B 8698   5.274  15.498   4.428  0.1168  0.0059 -0.2659
  781POPS   CNO 8699  14.332   5.510   2.106  0.2266 -0.2428 -0.0773
  781POPS   PO4 8700  14.417   5.842   2.312  0.0340 -0.1043 -0.1144
  781POPS   GL1 8701  14.582   5.696   2.666  0.2383  0.1263 -0.0375
  781POPS   GL2 8702  14.883   5.639   2.694  0.2198  0.1915  0.1495
  781POPS   C1A 8703  14.689   5.920   3.055 -0.0776 -0.1655  0.1995
  781POPS   D2A 8704  14.956   6.097   3.309 -0.2647  0.1377  0.1747
  781POPS   C3A 8705  14.855   5.965   3.742 -0.2095 -0.0837  0.0338
  781POPS   C4A 8706  14.431   5.900   3.961  0.2021 -0.3866  0.3038
  781POPS   C1B 8707  15.229   5.750   3.023  0.0413 -0.1120  0.1565
  781POPS   C2B 8708  15.454   5.737   3.492 -0.1543  0.0753 -0.2525
  781POPS   C3B 8709  15.362   5.992   3.729 -0.0875  0.1751  0.4368
  781POPS   C4B 8710  15.658   6.224   4.071 -0.2534 -0.0694  0.0498
  782POPC   NC3 8711   2.741   3.211   2.051 -0.0821 -0.2147  0.0139
  782POPC   PO4 8712   3.003   3.126   2.364 -0.0633 -0.2806  0.1247
  782POPC   GL1 8713   2.939   2.934   2.667 -0.1583 -0.0846  0.2070
  782POPC   GL2 8714   2.745   2.992   2.890  0.1070 -0.1945  0.0412
  782POPC   C1A 8715   3.088   2.652   2.942  0.3845 -0.2826  0.2160
  782POPC   D2A 8716   2.947   2.435   3.353 -0.3099 -0.0428  0.1633
  782POPC   C3A 8717   2.610   2.420   3.621  0.1199 -0.0749 -0.1206
  782POPC   C4A 8718   2.580   2.195   3.925  0.4381 -0.0020 -0.0700
  782POPC   C1B 8719   2.747   2.880   3.335  0.1939 -0.1206 -0.1169
  782POPC   C2B 8720   2.819   2.812   3.756  0.0385  0.0984  0.0152
  782POPC   C3B 8721   3.034   2.481   3.842 -0.2296  0.1117 -0.2165
  782POPC   C4B 8722   3.143   2.189   3.771 -0.2845 -0.3207  0.1635
  783POPE   NH3 8723  13.075   3.775   2.334 -0.2484 -0.0414  0.2710
  783POPE   PO4 8724  13.126   4.028   2.604  0.0341  0.1606  0.0004
  783POPE   GL1 8725  13.295   3.893   2.924  0.3154 -0.1203 -0.1148
  783POPE   GL2 8726  13.088   3.562   3.100 -0.1361  0.0603  0.1569
  783POPE   C1A 8727  13.612   3.871   3.211 -0.1240 -0.2681  0.0089
  783POPE   D2A 8728  13.876   4.071   3.517 -0.0038 -0.0739  0.0788
  783POPE   C3A 8729  13.859   4.483   3.580 -0.1170  0.1099  0.0427
  783POPE   C4A 8730  13.503   4.625   3.843  0.2461  0.5234  0.1016
  783POPE   C1B 8731  13.250   3.608   3.465 -0.1648 -0.1233 -0.1347
  783POPE   C2B 8732  13.552   3.652   3.761  0.0250 -0.0396  0.1492
  783POPE   C3B 8733  13.681   3.646   4.266 -0.2329  0.3100 -0.1402
  783POPE   C4B 8734  13.536   4.024   4.591  0.0407 -0.1512 -0.0329
  784CHOL   ROH 8735   1.448   7.159   3.104 -0.1857 -0.0456 -0.1003
  784CHOL    R1 8736   1.434   7.083   3.376 -0.1719  0.0023 -0.0865
  784CHOL    R2 8737   1.491   7.259   3.583 -0.1878  0.0456 -0.1204
  784CHOL    R3 8738   1.244   7.185   3.669 -0.1776  0.0336 -0.1005
  784CHOL    R4 8739   1.390   7.255   3.913 -0.1195 -0.0791 -0.1000
  784CHOL    R5 8740   1.285   7.068   3.874 -0.1457 -0.0547 -0.1553
  784CHOL    C1 8741   1.100   7.184   4.187 -0.0702 -0.1630 -0.0695
  784CHOL    C2 8742   0.768   7.055   3.992  0.0070  0.0740  0.0503
  785CHOL   ROH 8743   3.485  12.033   2.639  0.0597  0.0350 -0.0289
  785CHOL    R1 8744   3.416  12.182   2.870  0.0852  0.0290 -0.0171
  785CHOL    R2 8745   3.405  12.070   3.122 -0.0035 -0.0060 -0.0364
  785CHOL    R3 8746   3.575  12.273   3.184  0.0726 -0.0872  0.0234
  785CHOL    R4 8747   3.512  12.147   3.442 -0.0791 -0.0595  0.0022
  785CHOL    R5 8748   3.492  12.359   3.392  0.0396 -0.0482 -0.0047
  785CHOL    C1 8749   3.734  12.383   3.685 -0.0516 -0.1668  0.0809
  785CHOL    C2 8750   3.782  12.298   4.001  0.2171 -0.1805 -0.4370
  786POPC   NC3 8751   1.425  10.882   2.201  0.2687  0.0588 -0.0090
  786POPC   PO4 8752   1.902  10.682   2.363  0.1247 -0.0908  0.0667
  786POPC   GL1 8753   1.962  10.639   2.865 -0.1633 -0.1879 -0.0533
  786POPC   GL2 8754   2.332  10.646   3.048 -0.3558  0.4018 -0.1915
  786POPC   C1A 8755   1.796  10.582   3.242 -0.2492  0.1050  0.1454
  786POPC   D2A 8756   1.693  10.607   3.679 -0.3577  0.0704 -0.0234
  786POPC   C3A 8757   1.714  10.616   4.025  0.0220 -0.0105 -0.0731
  786POPC   C4A 8758   1.734  10.337   4.362 -0.0040 -0.4978  0.1183
  786POPC   C1B 8759   2.296  10.449   3.385  0.0733 -0.5576 -0.1285
  786POPC   C2B 8760   2.169  10.545   3.817 -0.0641  0.1548 -0.0548
  786POPC   C3B 8761   2.261  10.451   4.191 -0.2443 -0.1529 -0.1658
  786POPC   C4B 8762   2.110  10.096   4.579 -0.0250 -0.0702 -0.1076
  787POPC   NC3 8763  14.906  12.296   2.249  0.0080  0.0410  0.1301
  787POPC   PO4 8764  14.869  11.911   2.332 -0.1154  0.2237  0.0732
  787POPC   GL1 8765  14.908  11.792   2.878 -0.0276 -0.0208 -0.0879
  787POPC   GL2 8766  15.181  11.658   2.866 -0.0292  0.1367 -0.1105
  787POPC   C1A 8767  14.624  11.823   3.223 -0.0438  0.0960  0.0562
  787POPC   D2A 8768  14.438  12.020   3.608 -0.1340  0.0857  0.2414
  787POPC   C3A 8769  14.576  12.323   3.825  0.0853 -0.0715  0.0357
  787POPC   C4A 8770  14.657  12.329   4.243 -0.1274 -0.0581  0.1477
  787POPC   C1B 8771  15.242  11.765   3.348  0.1289 -0.2380 -0.3261
  787POPC   C2B 8772  15.121  11.880   3.668  0.1558 -0.0345 -0.0633
  787POPC   C3B 8773  14.890  11.917   3.926 -0.1136 -0.1506  0.1921
  787POPC   C4B 8774  14.852  11.884   4.302  0.2202 -0.0116 -0.0400
  788CHOL   ROH 8775  11.725  15.567   2.745 -0.1647 -0.2272  0.1357
  788CHOL    R1 8776  11.644  15.546   3.015 -0.1232 -0.1457  0.1541
  788CHOL    R2 8777  11.795  15.648   3.223 -0.1393  0.0026  0.0910
  788CHOL    R3 8778  11.563  15.777   3.285 -0.1840 -0.0648  0.0680
  788CHOL    R4 8779  11.717  15.777   3.535 -0.1116  0.1722  0.0295
  788CHOL    R5 8780  11.513  15.705   3.508 -0.0881  0.0569  0.1319
  788CHOL    C1 8781  11.455  15.972   3.774 -0.1375  0.2077 -0.0278
  788CHOL    C2 8782  11.280  16.304   4.068 -0.0859  0.0557  0.1678
  789CHOL   ROH 8783   2.314   4.955   2.827 -0.1028 -0.3284  0.1068
  789CHOL    R1 8784   2.293   4.820   3.075  0.1933 -0.2732  0.1677
  789CHOL    R2 8785   2.515   4.748   3.225  0.3646  0.2916  0.2113
  789CHOL    R3 8786   2.387   4.887   3.421  0.0357  0.0963  0.1407
  789CHOL    R4 8787   2.587   4.728   3.562  0.0719  0.2668  0.2749
  789CHOL    R5 8788   2.374   4.734   3.604  0.0267  0.0262  0.0823
  789CHOL    C1 8789   2.509   4.846   3.942 -0.4072  0.0690  0.2456
  789CHOL    C2 8790   2.385   4.790   4.196  0.0776 -0.0267 -0.1336
  790POSM   NC3 8791  11.295  15.800   1.892 -0.0957 -0.1320 -0.2935
  790POSM   PO4 8792  10.971  15.790   1.766  0.1000 -0.1167  0.0234
  790POSM   AM1 8793  11.017  16.049   2.233  0.3244  0.0350  0.2817
  790POSM   AM2 8794  11.191  15.895   2.464  0.0126 -0.2101  0.2576
  790POSM   T1A 8795  10.864  16.148   2.715 -0.1528 -0.2959 -0.3268
  790POSM   C2A 8796  10.785  16.371   3.166  0.2243 -0.2686  0.2884
  790POSM   C3A 8797  10.431  16.326   3.517 -0.1477 -0.0685  0.1551
  790POSM   C1B 8798  11.214  15.808   2.804 -0.0974  0.0095 -0.0797
  790POSM   D2B 8799  10.982  15.833   3.067  0.4819 -0.2235 -0.1836
  790POSM   C3B 8800  11.051  15.981   3.524  0.1092  0.0749  0.0812
  790POSM   C4B 8801  10.814  16.296   3.833  0.3215  0.1039  0.0684
  791POPE   NH3 8802  15.053  11.141   2.473 -0.0926  0.0903  0.0381
  791POPE   PO4 8803  15.104  10.675   2.634 -0.0519  0.1067 -0.2164
  791POPE   GL1 8804  15.048  10.803   3.041 -0.1732 -0.1975 -0.2104
  791POPE   GL2 8805  15.037  11.136   2.979  0.1910 -0.2825 -0.0171
  791POPE   C1A 8806  15.051  10.921   3.451  0.1846  0.0664  0.0386
  791POPE   D2A 8807  14.940  11.011   3.822  0.2236 -0.1765 -0.0280
  791POPE   C3A 8808  15.324  10.891   4.142  0.2555 -0.0427 -0.2970
  791POPE   C4A 8809  15.589  10.636   4.470 -0.2029 -0.1438  0.2869
  791POPE   C1B 8810  14.896  11.438   3.238 -0.1732 -0.3358  0.1231
  791POPE   C2B 8811  14.777  11.474   3.643 -0.0249 -0.1371  0.1800
  791POPE   C3B 8812  14.610  11.390   4.090  0.2024 -0.1091  0.0638
  791POPE   C4B 8813  14.564  11.089   4.381 -0.2175  0.2856  0.3041
  792POPC   NC3 8814   8.255  15.693   2.232 -0.1670 -0.0198  0.0399
  792POPC   PO4 8815   7.922  15.524   2.410  0.0917  0.0551  0.0708
  792POPC   GL1 8816   8.074  15.762   2.673  0.3709 -0.0227  0.4451
  792POPC   GL2 8817   8.294  15.552   2.767 -0.0086  0.0224  0.0480
  792POPC   C1A 8818   8.022  16.056   2.799  0.0129  0.0232  0.0244
  792POPC   D2A 8819   7.939  16.462   2.965 -0.1687 -0.1184 -0.2289
  792POPC   C3A 8820   7.791  16.663   3.368 -0.3334  0.1910 -0.0869
  792POPC   C4A 8821   7.537  16.674   3.774  0.0284  0.3280 -0.0316
  792POPC   C1B 8822   8.646  15.561   2.836 -0.2607  0.1958  0.2536
  792POPC   C2B 8823   8.913  15.401   3.221 -0.0295 -0.1724 -0.2015
  792POPC   C3B 8824   8.995  15.466   3.562 -0.0829 -0.2249  0.1736
  792POPC   C4B 8825   9.088  15.722   3.953  0.0206  0.0594  0.1164
  793POPC   NC3 8826  12.871  15.334   1.969 -0.1151 -0.1603 -0.1042
  793POPC   PO4 8827  13.023  15.221   2.432  0.0890 -0.1598  0.1865
  793POPC   GL1 8828  12.943  15.465   2.791  0.2704 -0.0427  0.1138
  793POPC   GL2 8829  12.693  15.543   2.837  0.1235 -0.3835 -0.0859
  793POPC   C1A 8830  12.965  15.314   3.216 -0.1171  0.0598 -0.0794
  793POPC   D2A 8831  13.103  15.039   3.478  0.0300  0.0315  0.0812
  793POPC   C3A 8832  12.939  14.887   3.679  0.0013 -0.2256  0.0598
  793POPC   C4A 8833  12.993  14.801   4.079 -0.2715  0.1562 -0.1185
  793POPC   C1B 8834  12.568  15.630   3.289  0.3918 -0.0024  0.0364
  793POPC   C2B 8835  12.502  15.772   3.688 -0.3707  0.2132  0.3197
  793POPC   C3B 8836  12.582  15.706   4.090  0.1539 -0.0150  0.4431
  793POPC   C4B 8837  12.490  15.903   4.437  0.0093  0.0084  0.2618
  794POSM   NC3 8838  16.283   8.321   2.203 -0.0063  0.1360 -0.0737
  794POSM   PO4 8839  15.865   7.979   2.200 -0.1971  0.1045  0.2224
  794POSM   AM1 8840  15.975   8.105   2.643  0.1829  0.2623  0.2018
  794POSM   AM2 8841  16.097   8.424   2.705 -0.1701 -0.1011 -0.0884
  794POSM   T1A 8842  16.019   8.017   3.123  0.1780 -0.0520  0.0406
  794POSM   C2A 8843  15.984   8.132   3.480 -0.3226 -0.1838  0.2690
  794POSM   C3A 8844  15.733   8.004   3.674  0.0877 -0.0816  0.2510
  794POSM   C1B 8845  16.101   8.525   3.069  0.1932  0.2328 -0.4590
  794POSM   D2B 8846  16.032   8.644   3.487 -0.2290 -0.0749  0.0054
  794POSM   C3B 8847  16.244   9.019   3.770 -0.0537 -0.3406 -0.1504
  794POSM   C4B 8848  16.280   9.016   4.142  0.0081 -0.0078 -0.1623
  795POPS   CNO 8849  15.989   9.050   1.953  0.0613  0.0827  0.0619
  795POPS   PO4 8850  16.081   8.795   2.188 -0.1602  0.1091 -0.0628
  795POPS   GL1 8851  15.787   8.692   2.448 -0.2875  0.0600 -0.1006
  795POPS   GL2 8852  15.749   8.887   2.750  0.1485  0.0558 -0.1347
  795POPS   C1A 8853  15.638   8.425   2.804 -0.0854  0.0752 -0.0504
  795POPS   D2A 8854  15.563   8.247   3.246 -0.1179 -0.0350 -0.1466
  795POPS   C3A 8855  15.480   7.748   3.237 -0.1979 -0.1075  0.2009
  795POPS   C4A 8856  15.400   7.324   3.248  0.1286  0.1171 -0.0891
  795POPS   C1B 8857  15.958   9.105   3.140 -0.1296 -0.0142 -0.0426
  795POPS   C2B 8858  15.864   9.114   3.487  0.1833  0.0989  0.1345
  795POPS   C3B 8859  15.658   9.025   3.825  0.3414  0.1972  0.4118
  795POPS   C4B 8860  15.466   8.860   4.177 -0.3891  0.0147  0.3980
  796POPE   NH3 8861   7.367  14.267   2.399  0.1225 -0.0983 -0.1329
  796POPE   PO4 8862   6.956  14.364   2.540  0.0018 -0.2219  0.0400
  796POPE   GL1 8863   7.221  14.383   2.842  0.1058  0.0106 -0.1633
  796POPE   GL2 8864   7.463  14.552   2.879  0.2047  0.0549  0.0567
  796POPE   C1A 8865   7.258  14.467   3.312  0.2212 -0.2562 -0.1798
  796POPE   D2A 8866   7.321  14.464   3.782  0.0261  0.0148  0.0009
  796POPE   C3A 8867   7.213  14.143   4.104  0.0548 -0.2742  0.1186
  796POPE   C4A 8868   7.487  13.715   4.250  0.1624  0.0910 -0.3326
  796POPE   C1B 8869   7.483  14.886   3.097 -0.1092  0.0231 -0.1352
  796POPE   C2B 8870   7.424  14.885   3.555  0.3022  0.1479  0.1538
  796POPE   C3B 8871   7.284  14.877   4.005  0.1687 -0.2166  0.2407
  796POPE   C4B 8872   7.059  15.155   4.204 -0.1849  0.1950 -0.0653
  797POPS   CNO 8873   8.457   0.885   2.445 -0.0104 -0.1938 -0.2499
  797POPS   PO4 8874   8.323   1.230   2.476  0.0784 -0.0216 -0.0307
  797POPS   GL1 8875   8.020   1.226   2.777 -0.1296 -0.2224  0.0817
  797POPS   GL2 8876   7.816   1.358   2.765 -0.1562 -0.0665 -0.0301
  797POPS   C1A 8877   7.822   1.112   3.220  0.0950  0.0852 -0.3689
  797POPS   D2A 8878   7.781   0.995   3.682 -0.0123 -0.1373  0.0259
  797POPS   C3A 8879   7.672   1.221   3.985  0.0099 -0.0211 -0.2269
  797POPS   C4A 8880   7.637   1.441   4.374 -0.2779  0.3010 -0.0794
  797POPS   C1B 8881   7.655   1.520   3.064  0.1736  0.2673  0.3504
  797POPS   C2B 8882   7.802   1.603   3.522  0.0012  0.1253 -0.1023
  797POPS   C3B 8883   7.815   1.763   3.928 -0.0002 -0.0051 -0.1300
  797POPS   C4B 8884   7.762   1.931   4.273  0.1370  0.3960 -0.0872
  798POPS   CNO 8885  14.482   5.209   2.533  0.1897 -0.2695  0.1944
  798POPS   PO4 8886  14.756   4.783   2.575  0.2251  0.1015  0.1566
  798POPS   GL1 8887  14.828   4.672   3.022 -0.0588  0.0496  0.0826
  798POPS   GL2 8888  15.149   4.625   3.166  0.0250  0.1588  0.0186
  798POPS   C1A 8889  14.778   4.737   3.519  0.0205  0.1468  0.1393
  798POPS   D2A 8890  14.643   4.898   3.913 -0.1670 -0.1998 -0.2401
  798POPS   C3A 8891  14.441   4.531   4.192  0.1201  0.0362 -0.0184
  798POPS   C4A 8892  14.012   4.422   4.398 -0.0042  0.0762 -0.0252
  798POPS   C1B 8893  15.264   4.744   3.583 -0.0570  0.2845 -0.0194
  798POPS   C2B 8894  15.176   4.880   3.964  0.0888 -0.1944  0.0292
  798POPS   C3B 8895  14.984   5.111   4.204  0.0390  0.1436 -0.4552
  798POPS   C4B 8896  14.701   5.053   4.496 -0.2476  0.0799 -0.1137
  799POPC   NC3 8897   4.352   1.445   1.920 -0.1061 -0.0328 -0.1313
  799POPC   PO4 8898   4.294   1.198   2.261 -0.0881 -0.4194  0.1377
  799POPC   GL1 8899   4.428   1.353   2.600  0.0598  0.0935  0.2937
  799POPC   GL2 8900   4.217   1.571   2.876 -0.0748 -0.1755  0.5015
  799POPC   C1A 8901   4.822   1.398   2.798  0.0611  0.1167  0.1118
  799POPC   D2A 8902   5.122   1.020   2.803  0.0187  0.1119  0.0497
  799POPC   C3A 8903   5.575   0.953   2.905 -0.1542  0.1294 -0.0725
  799POPC   C4A 8904   5.964   0.968   2.615  0.2979 -0.1390  0.1366
  799POPC   C1B 8905   4.429   1.475   3.214  0.1112 -0.0148 -0.2056
  799POPC   C2B 8906   4.409   1.562   3.654 -0.2411 -0.0020 -0.5891
  799POPC   C3B 8907   4.303   1.461   4.153 -0.1913 -0.0363 -0.2286
  799POPC   C4B 8908   4.321   1.564   4.679 -0.0434  0.2913 -0.3100
  800POPE   NH3 8909   1.362   6.326   2.322 -0.0035 -0.1670  0.0637
  800POPE   PO4 8910   1.711   5.927   2.181  0.1543  0.0612  0.1712
  800POPE   GL1 8911   1.687   5.716   2.552 -0.0170 -0.1544 -0.1758
  800POPE   GL2 8912   1.455   5.927   2.661  0.0895 -0.1450 -0.0915
  800POPE   C1A 8913   1.729   5.650   2.975  0.0947 -0.1061  0.2433
  800POPE   D2A 8914   1.523   5.787   3.370  0.0774 -0.1765  0.0456
  800POPE   C3A 8915   1.728   5.797   3.736 -0.0159  0.1472  0.1541
  800POPE   C4A 8916   1.836   5.453   3.998  0.0736 -0.1462 -0.0184
  800POPE   C1B 8917   1.216   6.071   3.082  0.2443 -0.3830  0.0309
  800POPE   C2B 8918   1.269   6.172   3.574 -0.3137  0.3781 -0.0250
  800POPE   C3B 8919   1.414   6.245   3.913 -0.2219  0.0415 -0.2138
  800POPE   C4B 8920   1.444   6.333   4.274  0.0562  0.2081  0.0941
  801POPE   NH3 8921   8.367   2.220   2.441  0.0614 -0.0837 -0.0775
  801POPE   PO4 8922   8.860   2.180   2.322  0.0993 -0.0427  0.1823
  801POPE   GL1 8923   8.917   2.133   2.797  0.1452 -0.2163  0.2120
  801POPE   GL2 8924   8.577   2.026   2.860  0.2349 -0.0684  0.0480
  801POPE   C1A 8925   8.953   2.134   3.219 -0.0680 -0.1757  0.0926
  801POPE   D2A 8926   9.245   2.205   3.539 -0.1192 -0.0305 -0.0826
  801POPE   C3A 8927   9.587   2.079   3.758  0.1954  0.1218 -0.3408
  801POPE   C4A 8928   9.821   2.066   4.095 -0.2151  0.1962 -0.1758
  801POPE   C1B 8929   8.594   1.853   3.299 -0.0966  0.0632 -0.3158
  801POPE   C2B 8930   8.730   1.739   3.555  0.0865  0.0150  0.2829
  801POPE   C3B 8931   8.850   1.859   3.926  0.0199  0.0122 -0.2169
  801POPE   C4B 8932   9.174   2.048   4.082  0.1036  0.1114 -0.0548
  802POPE   NH3 8933   1.603   4.475   1.724 -0.0172  0.0711 -0.1704
  802POPE   PO4 8934   1.714   4.157   2.132  0.0043  0.1535 -0.2075
  802POPE   GL1 8935   1.836   4.261   2.541 -0.3027  0.0714  0.0045
  802POPE   GL2 8936   2.111   4.486   2.560  0.1622 -0.0447 -0.2519
  802POPE   C1A 8937   2.027   4.085   2.913  0.0645  0.0814  0.0764
  802POPE   D2A 8938   2.391   3.855   3.009 -0.0606  0.0782 -0.1971
  802POPE   C3A 8939   2.508   3.747   3.507  0.1006  0.1155  0.4925
  802POPE   C4A 8940   2.249   3.571   3.861  0.2253  0.0122  0.0286
  802POPE   C1B 8941   2.408   4.398   2.865  0.0849  0.4047  0.1684
  802POPE   C2B 8942   2.376   4.237   3.345 -0.0654  0.1886  0.1906
  802POPE   C3B 8943   2.089   3.988   3.589  0.3648 -0.1713  0.0184
  802POPE   C4B 8944   1.684   4.000   3.614  0.0148 -0.4289 -0.4019
  803POPE   NH3 8945  13.624   4.067   2.585  0.1818 -0.1511  0.0156
  803POPE   PO4 8946  14.026   4.308   2.513  0.1523  0.3149 -0.3767
  803POPE   GL1 8947  14.023   4.293   2.867 -0.0421  0.0025 -0.2618
  803POPE   GL2 8948  14.358   4.476   3.008  0.2677 -0.1649 -0.1178
  803POPE   C1A 8949  13.919   4.680   3.147 -0.0955 -0.1321 -0.0469
  803POPE   D2A 8950  13.612   4.872   3.385  0.1379 -0.1363 -0.1970
  803POPE   C3A 8951  13.734   5.145   3.768 -0.1710  0.1248  0.2489
  803POPE   C4A 8952  13.416   5.144   4.116  0.1657 -0.0548 -0.0966
  803POPE   C1B 8953  14.395   4.377   3.464  0.1378 -0.1656  0.5720
  803POPE   C2B 8954  14.195   4.256   3.854 -0.0177 -0.1327 -0.0097
  803POPE   C3B 8955  13.730   4.152   3.998  0.2889 -0.1008 -0.0792
  803POPE   C4B 8956  13.381   4.325   4.240 -0.1626 -0.0413 -0.1027
  804POPS   CNO 8957  10.545  15.552   1.746 -0.1987  0.0531  0.0827
  804POPS   PO4 8958  10.590  15.827   2.167  0.0673  0.0407  0.0626
  804POPS   GL1 8959  10.509  15.817   2.602 -0.1001  0.1131 -0.4605
  804POPS   GL2 8960  10.741  15.507   2.757 -0.1478 -0.0925  0.2778
  804POPS   C1A 8961  10.426  16.012   2.961 -0.0005  0.1759 -0.2535
  804POPS   D2A 8962  10.592  15.755   3.373 -0.3752 -0.2965  0.1903
  804POPS   C3A 8963  10.424  15.842   3.752  0.0205  0.1712 -0.0744
  804POPS   C4A 8964  10.630  15.896   4.119 -0.3094 -0.1205  0.0361
  804POPS   C1B 8965  10.555  15.325   3.109  0.0573  0.1374  0.1849
  804POPS   C2B 8966  10.597  15.187   3.483 -0.3021  0.3415 -0.0030
  804POPS   C3B 8967  10.595  15.389   3.910 -0.0475 -0.0630  0.0443
  804POPS   C4B 8968  10.774  15.437   4.276 -0.0045  0.0170  0.1697
  805POPC   NC3 8969   3.920   1.964   1.702  0.1970 -0.1125 -0.0121
  805POPC   PO4 8970   3.709   1.993   2.162  0.1115 -0.1091  0.2347
  805POPC   GL1 8971   3.783   2.078   2.581  0.1639  0.0572  0.0944
  805POPC   GL2 8972   3.457   2.308   2.747 -0.0060 -0.0968  0.0812
  805POPC   C1A 8973   4.007   2.067   2.958  0.0588  0.1413 -0.4079
  805POPC   D2A 8974   4.005   1.790   3.386 -0.0540  0.3293 -0.3025
  805POPC   C3A 8975   3.910   1.396   3.697 -0.0843  0.2091  0.0880
  805POPC   C4A 8976   4.143   1.072   3.913 -0.0462  0.0074  0.2344
  805POPC   C1B 8977   3.425   2.330   3.239  0.0188  0.1704  0.4621
  805POPC   C2B 8978   3.676   2.169   3.509 -0.0095 -0.1030  0.0794
  805POPC   C3B 8979   3.988   2.017   3.935  0.0647  0.2355 -0.0122
  805POPC   C4B 8980   4.356   1.977   4.150  0.2443 -0.1794  0.1685
  806POPS   CNO 8981  15.238   9.455   2.167 -0.2009 -0.1667 -0.1388
  806POPS   PO4 8982  15.150   9.715   2.403 -0.2286 -0.5390 -0.2668
  806POPS   GL1 8983  15.293   9.784   2.832  0.0588  0.1701 -0.1866
  806POPS   GL2 8984  15.471   9.470   2.816  0.2960  0.0546 -0.0287
  806POPS   C1A 8985  15.139   9.698   3.248 -0.2242 -0.1216  0.1474
  806POPS   D2A 8986  15.315   9.328   3.567 -0.0521  0.2143  0.3209
  806POPS   C3A 8987  15.402   9.439   4.019  0.0280  0.0690  0.2620
  806POPS   C4A 8988  15.420   9.675   4.283 -0.2774 -0.0562  0.3184
  806POPS   C1B 8989  15.439   9.134   3.125 -0.2404 -0.4082 -0.2087
  806POPS   C2B 8990  15.529   8.720   3.266  0.3779  0.0932  0.3812
  806POPS   C3B 8991  15.504   8.595   3.666  0.0204  0.1225 -0.0501
  806POPS   C4B 8992  15.879   8.523   3.940  0.0974 -0.0361 -0.0822
  807POPS   CNO 8993   6.043   1.769   2.489  0.0065 -0.0121  0.1795
  807POPS   PO4 8994   5.593   1.626   2.179 -0.2882 -0.1076  0.2236
  807POPS   GL1 8995   5.608   1.498   2.625  0.1023  0.1768 -0.0815
  807POPS   GL2 8996   5.701   1.804   2.883 -0.3244  0.0508 -0.0232
  807POPS   C1A 8997   5.307   1.525   2.985  0.0195 -0.0098 -0.2901
  807POPS   D2A 8998   5.387   1.569   3.569 -0.1992  0.1394  0.3530
  807POPS   C3A 8999   5.257   1.266   3.881  0.0365  0.0025 -0.2231
  807POPS   C4A 9000   5.143   1.180   4.322 -0.1676  0.0401 -0.3049
  807POPS   C1B 9001   5.415   1.963   3.209 -0.1192 -0.0156  0.0983
  807POPS   C2B 9002   5.179   2.074   3.624 -0.0005  0.2756  0.1458
  807POPS   C3B 9003   5.326   2.022   3.946 -0.1542 -0.0605 -0.0401
  807POPS   C4B 9004   5.570   2.266   4.213 -0.1163 -0.2883  0.0878
  808POPS   CNO 9005  16.567   7.090   1.600 -0.1636  0.1623  0.1929
  808POPS   PO4 9006  16.169   7.173   1.814 -0.1850  0.1119  0.0426
  808POPS   GL1 9007  16.304   7.144   2.269 -0.2509  0.0719  0.1577
  808POPS   GL2 9008  16.263   6.783   2.477  0.2133  0.0606  0.2852
  808POPS   C1A 9009  16.162   7.329   2.623 -0.1615  0.0377  0.1059
  808POPS   D2A 9010  16.221   7.542   2.860 -0.3113 -0.3402 -0.0291
  808POPS   C3A 9011  16.021   7.511   3.286 -0.1107  0.0307 -0.2341
  808POPS   C4A 9012  16.080   7.394   3.719 -0.2484 -0.1209  0.1697
  808POPS   C1B 9013  15.981   6.711   2.842  0.1343  0.1184 -0.0262
  808POPS   C2B 9014  15.847   6.516   3.152  0.1097  0.0159 -0.2391
  808POPS   C3B 9015  15.651   6.423   3.510 -0.1352 -0.0712 -0.1633
  808POPS   C4B 9016  15.544   6.659   3.804 -0.0473 -0.2784 -0.1865
  809POPE   NH3 9017  12.883  13.716   2.490  0.0651  0.2009 -0.1726
  809POPE   PO4 9018  13.153  13.452   2.403  0.0922  0.1402  0.1614
  809POPE   GL1 9019  13.353  13.786   2.710 -0.0306  0.0701  0.0748
  809POPE   GL2 9020  13.016  13.979   2.908 -0.2363  0.0634 -0.2857
  809POPE   C1A 9021  13.274  13.716   3.271  0.1394 -0.5941  0.0336
  809POPE   D2A 9022  13.007  13.628   3.439 -0.2181  0.1270  0.3688
  809POPE   C3A 9023  13.045  13.803   3.855  0.0536  0.1060  0.0726
  809POPE   C4A 9024  12.942  13.598   4.167 -0.2258 -0.1805 -0.0392
  809POPE   C1B 9025  13.086  14.166   3.316  0.3782 -0.1122  0.0476
  809POPE   C2B 9026  13.120  14.360   3.695 -0.0621 -0.2682 -0.1291
  809POPE   C3B 9027  12.858  14.209   4.113  0.3882  0.2698  0.2221
  809POPE   C4B 9028  12.691  14.482   4.345 -0.0025 -0.1683 -0.2754
  810CHOL   ROH 9029   1.606  11.403   2.962  0.0665 -0.0247 -0.1035
  810CHOL    R1 9030   1.662  11.250   3.193  0.0667 -0.0393 -0.1131
  810CHOL    R2 9031   1.869  11.067   3.204  0.1018 -0.0008 -0.1065
  810CHOL    R3 9032   1.941  11.210   3.423  0.0451 -0.0096 -0.0821
  810CHOL    R4 9033   2.077  10.953   3.455  0.0404 -0.0067 -0.0584
  810CHOL    R5 9034   1.947  11.050   3.600  0.0035 -0.0156 -0.0875
  810CHOL    C1 9035   2.265  11.021   3.808 -0.0486 -0.0184 -0.0075
  810CHOL    C2 9036   2.520  10.935   4.008  0.0127 -0.4230 -0.0821
  811POPS   CNO 9037   1.443  12.217   2.312  0.1586 -0.0895  0.2364
  811POPS   PO4 9038   1.067  12.039   2.583 -0.1344 -0.0442  0.0626
  811POPS   GL1 9039   1.440  12.114   2.913 -0.0609 -0.0893 -0.0817
  811POPS   GL2 9040   1.523  11.896   3.074 -0.1327  0.2124 -0.5069
  811POPS   C1A 9041   1.420  12.260   3.405 -0.4271  0.0863 -0.1910
  811POPS   D2A 9042   1.422  12.571   3.809  0.1753  0.2658 -0.1828
  811POPS   C3A 9043   1.019  12.780   4.060  0.0854 -0.0959  0.0023
  811POPS   C4A 9044   1.022  13.119   4.274 -0.2652 -0.1034  0.0470
  811POPS   C1B 9045   1.551  11.744   3.439 -0.1920 -0.0437  0.2848
  811POPS   C2B 9046   1.713  11.546   3.801  0.0040 -0.2434  0.3926
  811POPS   C3B 9047   2.036  11.452   3.988  0.1354  0.0968  0.0478
  811POPS   C4B 9048   2.325  11.601   4.266 -0.3181 -0.1289 -0.2030
  812POPE   NH3 9049   4.160  14.418   2.413  0.0509 -0.0249  0.1165
  812POPE   PO4 9050   3.804  14.099   2.347 -0.0002  0.0165  0.1872
  812POPE   GL1 9051   3.815  13.727   2.556 -0.2436  0.1043 -0.4406
  812POPE   GL2 9052   3.551  13.701   2.817  0.0419  0.0710  0.0542
  812POPE   C1A 9053   4.028  13.606   2.955 -0.1508  0.0364 -0.0970
  812POPE   D2A 9054   4.438  13.782   3.137  0.0310  0.1941 -0.1833
  812POPE   C3A 9055   4.378  13.957   3.476  0.1481 -0.0383  0.2513
  812POPE   C4A 9056   4.351  13.915   3.875  0.0434  0.0944 -0.1265
  812POPE   C1B 9057   3.484  13.689   3.285  0.0494 -0.1315 -0.1882
  812POPE   C2B 9058   3.270  13.648   3.644  0.0794  0.0304  0.1337
  812POPE   C3B 9059   3.341  13.734   4.083 -0.1245 -0.0084 -0.0304
  812POPE   C4B 9060   3.284  13.819   4.553 -0.3037 -0.0640 -0.1219
  813POSM   NC3 9061   4.778  14.292   1.906  0.1574  0.2691 -0.1683
  813POSM   PO4 9062   4.643  14.243   2.282 -0.1033  0.0235  0.1549
  813POSM   AM1 9063   4.667  14.072   2.738 -0.0911 -0.2670  0.0238
  813POSM   AM2 9064   4.277  14.125   2.801 -0.2482 -0.0902 -0.1963
  813POSM   T1A 9065   4.848  14.041   3.153 -0.0988 -0.2344 -0.2577
  813POSM   C2A 9066   4.892  13.860   3.563  0.1386  0.2352 -0.2409
  813POSM   C3A 9067   5.271  13.778   3.786 -0.2057  0.0927 -0.3234
  813POSM   C1B 9068   4.338  14.365   3.191 -0.3948  0.0318  0.0238
  813POSM   D2B 9069   4.125  14.343   3.627 -0.1916  0.0284 -0.2577
  813POSM   C3B 9070   4.280  14.508   4.012  0.0452 -0.1449  0.1058
  813POSM   C4B 9071   4.329  14.668   4.388 -0.0474 -0.1033  0.0783
  814POSM   NC3 9072  12.266   3.040   2.404 -0.0280  0.0985 -0.0973
  814POSM   PO4 9073  12.118   2.610   2.343  0.0350  0.0616 -0.0022
  814POSM   AM1 9074  12.220   2.458   2.774  0.0267  0.0728 -0.0543
  814POSM   AM2 9075  12.205   2.791   2.866  0.0538  0.2174 -0.0766
  814POSM   T1A 9076  12.479   2.243   2.925 -0.2600  0.2720  0.2976
  814POSM   C2A 9077  12.722   2.162   3.293  0.3063  0.0179  0.0676
  814POSM   C3A 9078  13.132   1.997   3.415 -0.0918 -0.2189  0.3153
  814POSM   C1B 9079  12.067   2.624   3.324  0.1954 -0.0908  0.0746
  814POSM   D2B 9080  11.607   2.422   3.419  0.1262 -0.1820  0.1515
  814POSM   C3B 9081  11.548   2.386   3.845  0.0700  0.3089 -0.0967
  814POSM   C4B 9082  11.732   2.620   4.208 -0.0433 -0.2916  0.1842
  815CHOL   ROH 9083  10.647   2.161   2.837 -0.0443  0.2720 -0.0012
  815CHOL    R1 9084  10.729   2.262   3.089  0.0345 -0.1103  0.1323
  815CHOL    R2 9085  10.641   2.506   3.186  0.5414  0.0341  0.2552
  815CHOL    R3 9086  10.567   2.356   3.401  0.0401  0.0358  0.0950
  815CHOL    R4 9087  10.587   2.629   3.504  0.4659 -0.0529  0.2768
  815CHOL    R5 9088  10.686   2.452   3.585  0.0529 -0.3013  0.2717
  815CHOL    C1 9089  10.486   2.561   3.891 -0.0488 -0.1020  0.1390
  815CHOL    C2 9090  10.417   2.952   3.925  0.1140 -0.1878  0.1421
  816CHOL   ROH 9091  10.188  15.501   2.790  0.0676 -0.0522 -0.0432
  816CHOL    R1 9092  10.123  15.565   3.058 -0.0080  0.0183 -0.0771
  816CHOL    R2 9093   9.961  15.404   3.214  0.0286  0.0085 -0.0461
  816CHOL    R3 9094  10.172  15.414   3.385 -0.0070  0.1568 -0.0129
  816CHOL    R4 9095   9.937  15.383   3.558 -0.0214  0.0468 -0.0496
  816CHOL    R5 9096  10.090  15.538   3.573 -0.1128  0.1375 -0.0473
  816CHOL    C1 9097  10.120  15.380   3.919 -0.0838  0.2083 -0.0205
  816CHOL    C2 9098  10.157  15.695   4.135  0.0434  0.1176 -0.1018
  817POPS   CNO 9099   3.000  13.888   2.650 -0.3388 -0.1725  0.3293
  817POPS   PO4 9100   2.732  13.711   2.310  0.0815  0.3188 -0.1430
  817POPS   GL1 9101   2.727  13.421   2.740 -0.1651  0.0922 -0.3444
  817POPS   GL2 9102   2.458  13.156   2.771  0.2358  0.0504  0.1970
  817POPS   C1A 9103   2.756  13.461   3.223  0.0679  0.0165  0.2067
  817POPS   D2A 9104   2.750  13.689   3.622 -0.2650  0.1631 -0.2097
  817POPS   C3A 9105   2.467  13.930   3.794  0.1384 -0.1515 -0.1705
  817POPS   C4A 9106   2.393  14.101   4.298 -0.3149  0.1066  0.3613
  817POPS   C1B 9107   2.271  13.384   3.123 -0.0292  0.3271  0.2627
  817POPS   C2B 9108   2.326  13.498   3.526  0.0871 -0.1450 -0.0695
  817POPS   C3B 9109   2.025  13.696   3.885 -0.1388  0.0371 -0.3041
  817POPS   C4B 9110   1.898  13.890   4.215 -0.0916 -0.0242  0.0160
  818POPE   NH3 9111  14.703   9.887   2.518  0.0445  0.0550 -0.1274
  818POPE   PO4 9112  14.955  10.260   2.448 -0.0748  0.2150 -0.0313
  818POPE   GL1 9113  14.746  10.304   2.853 -0.2319 -0.3878 -0.1912
  818POPE   GL2 9114  15.037  10.230   3.052  0.1187  0.0435  0.0245
  818POPE   C1A 9115  14.624  10.504   3.197 -0.1418 -0.3304 -0.0424
  818POPE   D2A 9116  14.599  10.539   3.673 -0.3789  0.1247  0.0632
  818POPE   C3A 9117  14.266  10.359   3.975 -0.0970  0.0554 -0.2244
  818POPE   C4A 9118  13.910  10.661   4.061  0.2643 -0.0378  0.3547
  818POPE   C1B 9119  15.154  10.432   3.409  0.2571 -0.1648  0.2715
  818POPE   C2B 9120  15.100  10.488   3.838  0.3066 -0.1160 -0.0169
  818POPE   C3B 9121  14.852  10.206   4.084 -0.0640  0.0326  0.0881
  818POPE   C4B 9122  14.911   9.772   4.164  0.2936  0.0291 -0.1276
  819CHOL   ROH 9123   1.371   8.614   2.712  0.0536  0.2706 -0.1254
  819CHOL    R1 9124   1.418   8.700   2.978 -0.0476  0.1216 -0.0577
  819CHOL    R2 9125   1.286   8.915   3.090  0.0181  0.1552 -0.0381
  819CHOL    R3 9126   1.223   8.734   3.283 -0.2079  0.1042 -0.1566
  819CHOL    R4 9127   1.236   8.990   3.424  0.0676  0.0049  0.0036
  819CHOL    R5 9128   1.344   8.808   3.476 -0.1427 -0.1510 -0.0970
  819CHOL    C1 9129   1.149   8.864   3.799 -0.1158 -0.1304 -0.0832
  819CHOL    C2 9130   1.290   9.219   4.044  0.3233 -0.3854 -0.2042
  820POPE   NH3 9131   9.601   2.621   2.263 -0.2945 -0.2116  0.1653
  820POPE   PO4 9132   9.955   2.423   2.189  0.1323 -0.0963 -0.2345
  820POPE   GL1 9133   9.997   2.171   2.507 -0.3482 -0.3688  0.2010
  820POPE   GL2 9134   9.717   2.226   2.598  0.1406 -0.2073  0.2128
  820POPE   C1A 9135  10.158   2.037   2.914  0.0762 -0.0450 -0.3450
  820POPE   D2A 9136  10.455   1.893   3.261 -0.0953 -0.1587  0.1237
  820POPE   C3A 9137  10.660   1.933   3.638  0.2589 -0.0521 -0.0381
  820POPE   C4A 9138  10.735   2.028   3.935 -0.0672 -0.3744  0.0034
  820POPE   C1B 9139   9.830   2.440   2.968 -0.1542 -0.0681 -0.0851
  820POPE   C2B 9140  10.037   2.245   3.366  0.2146  0.1796 -0.1784
  820POPE   C3B 9141  10.195   2.135   3.749 -0.0479 -0.0420 -0.0575
  820POPE   C4B 9142  10.299   2.144   4.190 -0.2661 -0.2943  0.1691
  821POPE   NH3 9143   2.465   3.014   2.466  0.0833 -0.1092  0.0448
  821POPE   PO4 9144   2.259   3.302   2.208  0.0234  0.1157  0.0124
  821POPE   GL1 9145   2.180   3.365   2.694  0.1478 -0.1507 -0.0931
  821POPE   GL2 9146   2.037   3.067   2.786 -0.1440  0.1134 -0.0170
  821POPE   C1A 9147   2.429   3.404   3.116  0.0219  0.3923  0.1546
  821POPE   D2A 9148   2.448   3.269   3.503  0.0739 -0.1368 -0.0416
  821POPE   C3A 9149   2.327   2.985   3.641 -0.4032  0.0202  0.0003
  821POPE   C4A 9150   2.095   2.779   4.051  0.1253 -0.0358  0.5183
  821POPE   C1B 9151   2.075   3.094   3.196 -0.0009 -0.5028  0.0393
  821POPE   C2B 9152   1.794   2.958   3.622 -0.0628  0.2254  0.4544
  821POPE   C3B 9153   1.662   3.031   3.957  0.1924 -0.0202  0.1539
  821POPE   C4B 9154   1.552   2.740   4.294  0.2800  0.2666 -0.1243
  822CHOL   ROH 9155   1.603   8.213   2.709 -0.1111 -0.2382 -0.0794
  822CHOL    R1 9156   1.561   8.176   2.987 -0.0183 -0.1724 -0.0571
  822CHOL    R2 9157   1.720   8.296   3.178  0.0623 -0.1518 -0.1420
  822CHOL    R3 9158   1.483   8.388   3.272  0.1078 -0.1011 -0.0727
  822CHOL    R4 9159   1.632   8.309   3.512  0.1308 -0.2278 -0.1200
  822CHOL    R5 9160   1.432   8.243   3.456  0.0948 -0.1459 -0.1068
  822CHOL    C1 9161   1.357   8.402   3.795  0.2133 -0.2245 -0.0422
  822CHOL    C2 9162   1.278   8.247   4.071  0.0236  0.0241 -0.2868
  823POSM   NC3 9163  15.118   6.012   2.467 -0.0756 -0.1412 -0.2327
  823POSM   PO4 9164  14.780   6.132   2.222 -0.1367 -0.1783  0.0097
  823POSM   AM1 9165  14.630   6.239   2.638 -0.4631 -0.2028  0.0330
  823POSM   AM2 9166  14.887   6.460   2.777 -0.0321  0.1500  0.3675
  823POSM   T1A 9167  14.377   6.415   3.029  0.0792  0.1740  0.0377
  823POSM   C2A 9168  14.260   6.611   3.319 -0.0277  0.1937 -0.2109
  823POSM   C3A 9169  14.604   6.471   3.555  0.2192 -0.1109 -0.1191
  823POSM   C1B 9170  14.910   6.626   3.212  0.2433  0.2358 -0.0712
  823POSM   D2B 9171  15.138   6.527   3.556  0.1797 -0.0681  0.0299
  823POSM   C3B 9172  14.986   6.398   3.922  0.0478  0.0948  0.2444
  823POSM   C4B 9173  14.626   6.348   4.127 -0.1232  0.1288 -0.2455
  824POPC   NC3 9174   5.908   0.310   2.217  0.0950  0.1220 -0.1672
  824POPC   PO4 9175   5.603   0.594   2.031  0.2322 -0.2267  0.1704
  824POPC   GL1 9176   5.613   0.591   2.484 -0.0797  0.0370 -0.2386
  824POPC   GL2 9177   5.285   0.538   2.571 -0.1360  0.3518 -0.0677
  824POPC   C1A 9178   5.874   0.513   2.867  0.1775 -0.0806 -0.0826
  824POPC   D2A 9179   5.687   0.603   3.191  0.0102 -0.1861 -0.0818
  824POPC   C3A 9180   5.537   0.333   3.557  0.1461  0.2366 -0.2264
  824POPC   C4A 9181   5.475   0.259   4.050  0.0116  0.2855 -0.2796
  824POPC   C1B 9182   5.408   0.285   2.859  0.0413 -0.1997  0.2622
  824POPC   C2B 9183   5.800   0.082   3.130 -0.3596  0.1078  0.2600
  824POPC   C3B 9184   5.814  -0.093   3.540  0.0681 -0.1924 -0.1911
  824POPC   C4B 9185   5.984   0.077   3.869 -0.2941 -0.0275 -0.0695
  825POPE   NH3 9186  16.345  11.627   2.745  0.1690  0.1620  0.0259
  825POPE   PO4 9187  15.966  11.447   2.791  0.0243  0.1942  0.0564
  825POPE   GL1 9188  15.662  11.547   3.097 -0.1425 -0.1748 -0.0652
  825POPE   GL2 9189  15.744  11.706   3.404 -0.1175  0.1560  0.1613
  825POPE   C1A 9190  15.393  11.296   3.484 -0.0117 -0.1232 -0.1995
  825POPE   D2A 9191  15.201  11.428   3.941 -0.1195 -0.0952  0.0485
  825POPE   C3A 9192  15.109  11.333   4.343  0.1008  0.0830  0.1722
  825POPE   C4A 9193  14.777  11.479   4.626  0.2155 -0.0998 -0.2389
  825POPE   C1B 9194  15.647  11.978   3.615  0.0597 -0.0186 -0.0907
  825POPE   C2B 9195  15.359  12.228   3.911 -0.0972 -0.2207  0.0570
  825POPE   C3B 9196  15.137  12.359   4.358 -0.2579 -0.1751  0.0521
  825POPE   C4B 9197  15.182  12.638   4.762  0.1090 -0.1768  0.1016
  826POPE   NH3 9198  12.770   3.564   2.669 -0.2747 -0.2161 -0.1739
  826POPE   PO4 9199  12.368   3.510   2.523 -0.0392  0.0872 -0.0123
  826POPE   GL1 9200  12.281   3.438   2.936 -0.0061 -0.0884 -0.0839
  826POPE   GL2 9201  12.017   3.325   2.899  0.0591  0.3212 -0.0482
  826POPE   C1A 9202  12.558   3.515   3.301 -0.3273 -0.3453 -0.0872
  826POPE   D2A 9203  12.702   3.264   3.712  0.0007  0.1466 -0.0185
  826POPE   C3A 9204  13.039   3.325   3.953 -0.2810 -0.0177 -0.1160
  826POPE   C4A 9205  13.349   3.161   4.295 -0.2677  0.0180  0.1363
  826POPE   C1B 9206  11.963   3.235   3.205 -0.1106 -0.2567  0.0074
  826POPE   C2B 9207  12.115   3.405   3.581  0.1885  0.1201 -0.2737
  826POPE   C3B 9208  12.285   3.501   3.973  0.0733 -0.0060  0.1921
  826POPE   C4B 9209  12.199   3.750   4.283 -0.0187 -0.1131 -0.1051
  827POPC   NC3 9210   1.102   9.348   2.300  0.0507 -0.0688 -0.1450
  827POPC   PO4 9211   1.345   8.936   2.318 -0.0690  0.1829 -0.3052
  827POPC   GL1 9212   1.690   9.021   2.611 -0.2438 -0.2312  0.2055
  827POPC   GL2 9213   1.878   8.754   2.557  0.0378  0.1105 -0.1570
  827POPC   C1A 9214   1.738   9.179   2.976 -0.0133  0.1197 -0.1778
  827POPC   D2A 9215   1.556   9.366   3.270  0.0784 -0.2687 -0.1500
  827POPC   C3A 9216   1.668   9.198   3.676  0.1337  0.0210 -0.1308
  827POPC   C4A 9217   1.813   9.154   4.118 -0.0110  0.0436 -0.2105
  827POPC   C1B 9218   1.929   8.647   2.934 -0.0027 -0.1973 -0.2900
  827POPC   C2B 9219   1.772   8.758   3.337 -0.3114  0.0656 -0.2862
  827POPC   C3B 9220   1.739   8.680   3.803 -0.3851 -0.1774  0.0829
  827POPC   C4B 9221   1.484   8.796   4.168 -0.1743 -0.1552  0.0954
  828POPE   NH3 9222   6.763  15.787   2.344 -0.1198  0.2082 -0.2054
  828POPE   PO4 9223   6.736  16.126   2.360  0.0960  0.0131 -0.0704
  828POPE   GL1 9224   6.684  16.223   2.784  0.0665  0.0896 -0.0667
  828POPE   GL2 9225   6.413  15.972   2.768  0.1585  0.0203  0.2236
  828POPE   C1A 9226   6.564  16.266   3.200 -0.0969  0.0989  0.0530
  828POPE   D2A 9227   6.669  16.559   3.496  0.0539  0.0625  0.0632
  828POPE   C3A 9228   6.438  16.779   3.707  0.3083  0.0694 -0.2675
  828POPE   C4A 9229   6.560  17.182   3.741 -0.3291  0.0908 -0.0152
  828POPE   C1B 9230   6.302  15.807   3.150 -0.1527  0.5154 -0.1211
  828POPE   C2B 9231   6.325  15.954   3.515  0.2213 -0.0170 -0.0307
  828POPE   C3B 9232   6.211  16.273   3.680 -0.0223 -0.0714 -0.0733
  828POPE   C4B 9233   6.394  16.513   4.082 -0.4578 -0.1424  0.1998
  829POPE   NH3 9234   8.842  15.034   2.302  0.0966 -0.1328  0.0482
  829POPE   PO4 9235   8.857  14.620   2.280 -0.4571 -0.1481  0.2024
  829POPE   GL1 9236   8.484  14.695   2.541  0.0167  0.2666 -0.1916
  829POPE   GL2 9237   8.156  14.562   2.624  0.0830  0.0646  0.1272
  829POPE   C1A 9238   8.400  15.070   2.901 -0.0050  0.0792 -0.1271
  829POPE   D2A 9239   8.345  15.371   3.227 -0.3192  0.0091  0.1530
  829POPE   C3A 9240   8.065  15.748   3.222  0.0612  0.3137  0.1799
  829POPE   C4A 9241   7.959  16.142   3.370 -0.0775 -0.2252  0.0926
  829POPE   C1B 9242   7.966  14.615   2.961  0.0536 -0.0500  0.1685
  829POPE   C2B 9243   7.926  14.811   3.329 -0.0172 -0.2391 -0.4487
  829POPE   C3B 9244   7.878  14.811   3.855 -0.1813  0.0092  0.0661
  829POPE   C4B 9245   7.733  14.764   4.242  0.1110 -0.2906  0.2315
  830POSM   NC3 9246   2.136   4.934   2.316  0.0916  0.0739 -0.1235
  830POSM   PO4 9247   1.700   4.806   2.190 -0.2847  0.0590  0.2153
  830POSM   AM1 9248   1.741   4.831   2.615 -0.2251 -0.0880  0.1762
  830POSM   AM2 9249   1.769   5.116   2.613 -0.3435  0.2656 -0.0659
  830POSM   T1A 9250   1.816   4.526   2.980 -0.1235  0.2811  0.4138
  830POSM   C2A 9251   1.894   4.405   3.396 -0.2560 -0.1076  0.2575
  830POSM   C3A 9252   2.008   4.485   3.888 -0.1005  0.2877  0.3293
  830POSM   C1B 9253   1.436   5.224   2.949 -0.0437 -0.1637 -0.3628
  830POSM   D2B 9254   1.382   5.243   3.346 -0.0626  0.1791  0.3442
  830POSM   C3B 9255   1.770   5.358   3.515  0.1295 -0.0165  0.1301
  830POSM   C4B 9256   2.217   5.317   3.650  0.1224  0.1192  0.0128
  831CHOL   ROH 9257   1.743   3.720   2.686 -0.1008  0.1644  0.0867
  831CHOL    R1 9258   1.734   3.560   2.919 -0.3359  0.0502  0.0017
  831CHOL    R2 9259   1.908   3.596   3.131 -0.1832 -0.4105 -0.0415
  831CHOL    R3 9260   1.678   3.614   3.275 -0.1016 -0.0307  0.0543
  831CHOL    R4 9261   1.886   3.550   3.472 -0.1099 -0.3931 -0.0335
  831CHOL    R5 9262   1.699   3.442   3.441 -0.3153 -0.0837  0.0366
  831CHOL    C1 9263   1.658   3.540   3.807  0.0093 -0.0265  0.0610
  831CHOL    C2 9264   1.546   3.458   4.091 -0.3653 -0.2473 -0.2399
  832POPC   NC3 9265   8.405   1.069   2.000 -0.1399  0.1874  0.3474
  832POPC   PO4 9266   8.899   1.170   2.201  0.1911  0.1501  0.0140
  832POPC   GL1 9267   8.845   1.088   2.713 -0.2078 -0.4656 -0.2148
  832POPC   GL2 9268   8.500   1.017   2.897 -0.1533 -0.0497 -0.0013
  832POPC   C1A 9269   8.741   1.316   3.174 -0.3255 -0.2977 -0.0905
  832POPC   D2A 9270   8.927   1.277   3.547  0.2157 -0.1058 -0.0004
  832POPC   C3A 9271   8.736   1.146   3.911  0.0166  0.0321 -0.3217
  832POPC   C4A 9272   8.490   0.901   4.213  0.2854  0.0587 -0.2282
  832POPC   C1B 9273   8.528   0.943   3.347 -0.1369  0.0223 -0.0126
  832POPC   C2B 9274   8.299   0.870   3.718 -0.3516  0.0897 -0.4965
  832POPC   C3B 9275   8.032   0.646   4.014  0.0323  0.1573  0.0935
  832POPC   C4B 9276   8.085   0.573   4.471  0.0428 -0.1123  0.0007
  833POPS   CNO 9277  14.532  13.233   2.242 -0.0291 -0.0719  0.1337
  833POPS   PO4 9278  14.262  13.650   2.158 -0.1455 -0.0553  0.0266
  833POPS   GL1 9279  14.242  13.438   2.625 -0.4509 -0.2761 -0.1051
  833POPS   GL2 9280  14.344  13.143   2.721 -0.0121 -0.0618  0.0487
  833POPS   C1A 9281  14.278  13.421   3.141 -0.1353 -0.0164 -0.1409
  833POPS   D2A 9282  14.262  13.571   3.621 -0.1408 -0.1104 -0.7053
  833POPS   C3A 9283  14.151  13.361   4.044  0.2395 -0.0883 -0.0828
  833POPS   C4A 9284  14.166  13.484   4.527  0.0555  0.1675 -0.1522
  833POPS   C1B 9285  14.045  12.977   2.940 -0.2223  0.4008 -0.0233
  833POPS   C2B 9286  13.932  13.099   3.383 -0.2536 -0.1552  0.1694
  833POPS   C3B 9287  13.872  12.776   3.711  0.5752  0.2453  0.0772
  833POPS   C4B 9288  14.038  12.326   3.754  0.1128 -0.0035  0.0572
  834POPS   CNO 9289   0.817   7.927   2.142 -0.0806 -0.0209 -0.4370
  834POPS   PO4 9290   0.779   7.576   2.483 -0.0890  0.3666 -0.1419
  834POPS   GL1 9291   0.752   7.516   2.864  0.0401 -0.0667 -0.0809
  834POPS   GL2 9292   1.035   7.424   2.884  0.2480 -0.0519  0.0535
  834POPS   C1A 9293   0.587   7.732   3.151 -0.2764  0.3101  0.2484
  834POPS   D2A 9294   0.635   7.653   3.511 -0.1117  0.3080  0.0391
  834POPS   C3A 9295   0.911   7.534   3.820 -0.1220 -0.1745 -0.0360
  834POPS   C4A 9296   0.985   7.848   4.066  0.0970  0.1932 -0.2054
  834POPS   C1B 9297   0.937   7.211   3.299 -0.0362  0.0759 -0.0026
  834POPS   C2B 9298   0.968   6.812   3.521  0.0586 -0.0415 -0.0034
  834POPS   C3B 9299   1.037   6.567   3.920  0.1001 -0.0500 -0.2043
  834POPS   C4B 9300   0.847   6.432   4.341 -0.0791 -0.1000 -0.4308
  835CHOL   ROH 9301  14.773   3.762   3.166  0.0573 -0.3540  0.1008
  835CHOL    R1 9302  14.733   3.666   3.430  0.0864 -0.2553  0.1433
  835CHOL    R2 9303  14.942   3.597   3.596  0.1169 -0.0082  0.2172
  835CHOL    R3 9304  14.823   3.773   3.766 -0.0531 -0.0139  0.1048
  835CHOL    R4 9305  15.017   3.628   3.932 -0.0384  0.1621  0.2366
  835CHOL    R5 9306  14.804   3.653   3.972 -0.0673  0.0532  0.1420
  835CHOL    C1 9307  14.948   3.812   4.287 -0.2885  0.2559  0.1424
  835CHOL    C2 9308  15.039   3.897   4.673  0.3109  0.0689  0.0358
  836POPE   NH3 9309   2.134  11.579   2.489  0.1075  0.0383 -0.4219
  836POPE   PO4 9310   1.879  11.821   2.322 -0.1734  0.0732  0.2201
  836POPE   GL1 9311   1.874  12.085   2.588 -0.0494  0.5751  0.3845
  836POPE   GL2 9312   2.141  12.266   2.597  0.1999 -0.0900 -0.2658
  836POPE   C1A 9313   1.890  12.364   2.996  0.0479 -0.2234  0.2431
  836POPE   D2A 9314   1.763  12.597   3.385 -0.0049 -0.1505 -0.0840
  836POPE   C3A 9315   1.328  12.803   3.353 -0.0942  0.1523  0.0033
  836POPE   C4A 9316   0.984  12.763   3.541  0.0779  0.0942 -0.2238
  836POPE   C1B 9317   2.362  12.201   3.061  0.1312 -0.1557 -0.1906
  836POPE   C2B 9318   2.512  12.095   3.509  0.2129 -0.4110  0.1496
  836POPE   C3B 9319   2.653  12.180   3.939  0.3967  0.2403  0.0295
  836POPE   C4B 9320   2.675  11.913   4.187  0.0444 -0.0180  0.1237
  837POSM   NC3 9321   1.509   9.931   2.219  0.0485  0.0976  0.0254
  837POSM   PO4 9322   1.537  10.397   2.218 -0.0705  0.2197 -0.2415
  837POSM   AM1 9323   1.854  10.217   2.569  0.1137  0.0650  0.0391
  837POSM   AM2 9324   1.571  10.071   2.672 -0.0778  0.0755 -0.0910
  837POSM   T1A 9325   2.034  10.143   2.948 -0.1801  0.2033 -0.3626
  837POSM   C2A 9326   1.960  10.084   3.429  0.0657 -0.0791  0.0198
  837POSM   C3A 9327   1.786  10.133   3.919  0.1446 -0.3057  0.1168
  837POSM   C1B 9328   1.751   9.692   2.870  0.2749 -0.3968 -0.0227
  837POSM   D2B 9329   2.036   9.601   3.206 -0.0356 -0.2762  0.0239
  837POSM   C3B 9330   2.035   9.586   3.617 -0.0142  0.0778 -0.1615
  837POSM   C4B 9331   2.224   9.445   3.904 -0.1981 -0.0337 -0.0836
  838POPS   CNO 9332   8.762  15.608   2.366 -0.0502  0.2652  0.1089
  838POPS   PO4 9333   8.820  15.916   2.202  0.2391  0.2770  0.1097
  838POPS   GL1 9334   9.026  16.038   2.566  0.0584  0.0335 -0.3109
  838POPS   GL2 9335   8.900  16.384   2.808 -0.0476  0.3121  0.1428
  838POPS   C1A 9336   9.013  15.964   3.081 -0.4162 -0.3573  0.0304
  838POPS   D2A 9337   9.114  15.932   3.476 -0.0776 -0.2146  0.1357
  838POPS   C3A 9338   8.865  16.145   3.782  0.1110  0.0639  0.1036
  838POPS   C4A 9339   9.057  16.179   4.218 -0.1966  0.2008 -0.0270
  838POPS   C1B 9340   8.809  16.464   3.266 -0.1432  0.4001  0.1298
  838POPS   C2B 9341   8.881  16.627   3.598  0.0953 -0.2770  0.2469
  838POPS   C3B 9342   8.825  16.598   3.945 -0.0424  0.0331  0.0389
  838POPS   C4B 9343   8.673  16.537   4.375 -0.3531  0.1164 -0.2291
  839CHOL   ROH 9344   9.504  16.250   2.750  0.1737 -0.1583  0.0097
  839CHOL    R1 9345   9.405  16.271   3.014  0.1423 -0.1385 -0.0037
  839CHOL    R2 9346   9.558  16.209   3.236  0.1637  0.0217  0.0234
  839CHOL    R3 9347   9.488  16.460   3.313  0.0055  0.0032 -0.0538
  839CHOL    R4 9348   9.471  16.300   3.558  0.3406  0.1085  0.0486
  839CHOL    R5 9349   9.314  16.427   3.475  0.1596 -0.0690  0.1034
  839CHOL    C1 9350   9.354  16.588   3.818  0.2951  0.1417 -0.0091
  839CHOL    C2 9351   9.234  16.653   4.197  0.1524  0.0703 -0.0447
  840POPS   CNO 9352  15.838  10.472   2.298  0.1807  0.1541 -0.0596
  840POPS   PO4 9353  16.143  10.596   2.436  0.3071 -0.0271  0.1746
  840POPS   GL1 9354  15.944  10.351   2.818 -0.0090 -0.0121 -0.0400
  840POPS   GL2 9355  15.776  10.015   2.851  0.0662 -0.3383 -0.3985
  840POPS   C1A 9356  15.937  10.464   3.298 -0.2416  0.3306  0.1833
  840POPS   D2A 9357  16.071  10.663   3.679 -0.0508 -0.1205  0.2980
  840POPS   C3A 9358  15.997  10.490   4.085  0.0332  0.4919 -0.0197
  840POPS   C4A 9359  16.172  10.127   4.314 -0.0925  0.2117 -0.0579
  840POPS   C1B 9360  15.479  10.080   3.199  0.0699 -0.1716 -0.1779
  840POPS   C2B 9361  15.580  10.220   3.649 -0.0840  0.0667  0.1616
  840POPS   C3B 9362  15.431  10.238   4.065 -0.1049  0.0023 -0.3222
  840POPS   C4B 9363  15.226  10.384   4.402 -0.1635  0.1924 -0.0501
  841POPS   CNO 9364   7.499   0.980   2.710 -0.0952 -0.1708 -0.1104
  841POPS   PO4 9365   7.493   0.628   2.487  0.2559  0.2800  0.0229
  841POPS   GL1 9366   7.389   0.590   2.976  0.3110  0.0383  0.0215
  841POPS   GL2 9367   7.101   0.775   3.050 -0.0667  0.0535  0.1879
  841POPS   C1A 9368   7.517   0.472   3.348  0.0634 -0.0406 -0.0486
  841POPS   D2A 9369   7.505   0.619   3.806  0.1924  0.1180  0.2656
  841POPS   C3A 9370   7.273   0.331   4.155  0.1073  0.0299  0.0447
  841POPS   C4A 9371   7.432  -0.062   4.228 -0.2020  0.1064 -0.0843
  841POPS   C1B 9372   6.796   0.905   3.388 -0.1275 -0.0616  0.2093
  841POPS   C2B 9373   6.315   1.087   3.563 -0.3118 -0.1567 -0.0315
  841POPS   C3B 9374   6.229   1.062   4.006  0.1858 -0.0441  0.2521
  841POPS   C4B 9375   6.509   0.931   4.364  0.2884  0.1020 -0.0880
  842POPS   CNO 9376   2.891   2.731   2.033 -0.1882  0.0005 -0.1282
  842POPS   PO4 9377   2.630   2.512   2.309 -0.1879 -0.1786  0.0771
  842POPS   GL1 9378   2.579   2.481   2.709  0.1806  0.3186 -0.2757
  842POPS   GL2 9379   2.213   2.577   2.710 -0.0409  0.1342  0.1138
  842POPS   C1A 9380   2.430   2.567   3.106 -0.0960  0.2129 -0.2035
  842POPS   D2A 9381   2.048   2.531   3.405 -0.2140 -0.1257  0.5266
  842POPS   C3A 9382   2.114   2.347   3.810  0.1157 -0.1818  0.0085
  842POPS   C4A 9383   2.174   2.305   4.175 -0.0850 -0.1911 -0.2134
  842POPS   C1B 9384   1.808   2.655   2.966 -0.2619 -0.0206  0.2395
  842POPS   C2B 9385   1.530   2.675   3.365  0.1486 -0.0294  0.2862
  842POPS   C3B 9386   1.523   2.540   3.796  0.0290  0.4704  0.3275
  842POPS   C4B 9387   1.390   2.291   4.125 -0.0278 -0.1499  0.2730
  843POPC   NC3 9388  16.558   5.942   2.336  0.4469 -0.0231  0.0490
  843POPC   PO4 9389  16.727   5.657   2.060  0.0518  0.0857  0.2415
  843POPC   GL1 9390  16.551   5.475   2.431 -0.0463  0.0594 -0.2417
  843POPC   GL2 9391  16.248   5.297   2.612 -0.0392  0.0004  0.0106
  843POPC   C1A 9392  16.710   5.383   2.833 -0.1499  0.0456 -0.2007
  843POPC   D2A 9393  16.606   5.401   3.290  0.1321  0.1367  0.3780
  843POPC   C3A 9394  16.225   5.632   3.443  0.2449  0.6187  0.2004
  843POPC   C4A 9395  15.863   5.991   3.666 -0.0576  0.1312  0.1527
  843POPC   C1B 9396  16.194   5.205   3.064 -0.0677 -0.1537  0.1966
  843POPC   C2B 9397  15.931   5.216   3.421  0.2364 -0.4342 -0.1695
  843POPC   C3B 9398  15.939   5.400   3.805 -0.0845 -0.1859 -0.3494
  843POPC   C4B 9399  15.709   5.685   4.004  0.1908 -0.2164 -0.2192
  844POPC   NC3 9400  14.225   3.972   2.262 -0.0275 -0.0985  0.0600
  844POPC   PO4 9401  14.128   3.793   2.623  0.0432  0.1724 -0.0359
  844POPC   GL1 9402  14.054   3.732   2.971 -0.1669  0.2423  0.0546
  844POPC   GL2 9403  14.293   3.868   3.072  0.0179  0.0370  0.1362
  844POPC   C1A 9404  13.955   3.481   3.369  0.2479  0.0344  0.1088
  844POPC   D2A 9405  14.353   3.264   3.456 -0.3057 -0.0540  0.3173
  844POPC   C3A 9406  14.471   3.263   3.925  0.5149  0.0893 -0.2047
  844POPC   C4A 9407  14.285   3.422   4.312 -0.2667  0.1002 -0.1949
  844POPC   C1B 9408  14.318   3.868   3.542  0.0183 -0.1718 -0.0291
  844POPC   C2B 9409  14.042   3.787   3.864  0.0691 -0.0892 -0.0629
  844POPC   C3B 9410  14.108   3.913   4.311 -0.1837 -0.1753  0.2979
  844POPC   C4B 9411  13.986   3.626   4.715 -0.0856 -0.2261 -0.1040
  845POSM   NC3 9412   7.471  15.017   2.431 -0.0383  0.0810  0.0860
  845POSM   PO4 9413   7.170  14.742   2.196  0.1457  0.1976 -0.0947
  845POSM   AM1 9414   7.030  14.913   2.645  0.0429 -0.2568  0.2433
  845POSM   AM2 9415   6.741  14.774   2.757 -0.1376  0.0392 -0.1192
  845POSM   T1A 9416   6.984  14.822   3.162 -0.2935  0.0245  0.0719
  845POSM   C2A 9417   6.849  14.669   3.515 -0.2397  0.0946  0.1358
  845POSM   C3A 9418   6.550  14.544   3.746  0.3014  0.2147 -0.0885
  845POSM   C1B 9419   6.496  14.909   3.220 -0.3174 -0.3800 -0.2698
  845POSM   D2B 9420   6.464  15.012   3.710  0.0854 -0.1120 -0.2004
  845POSM   C3B 9421   6.800  15.033   3.839 -0.3299 -0.0514 -0.0781
  845POSM   C4B 9422   6.869  14.645   4.084  0.3686 -0.0312 -0.0535
  846POPE   NH3 9423   2.410  10.495   2.488 -0.1174  0.2022  0.0252
  846POPE   PO4 9424   2.386  11.001   2.599  0.0781  0.1862 -0.4100
  846POPE   GL1 9425   2.359  11.124   2.988 -0.0095 -0.1544 -0.1738
  846POPE   GL2 9426   2.174  11.403   2.944 -0.0327 -0.2008 -0.0337
  846POPE   C1A 9427   2.519  11.224   3.389  0.2499 -0.1770 -0.1994
  846POPE   D2A 9428   2.538  11.467   3.764  0.2871 -0.2916 -0.1141
  846POPE   C3A 9429   2.790  11.728   3.751  0.1318  0.1164  0.2541
  846POPE   C4A 9430   3.170  11.768   4.036 -0.0955  0.0864  0.1284
  846POPE   C1B 9431   2.008  11.836   3.058  0.0873  0.1046 -0.2019
  846POPE   C2B 9432   2.001  12.111   3.408  0.2437 -0.0567  0.2211
  846POPE   C3B 9433   1.779  12.133   3.779 -0.0709  0.0194 -0.1397
  846POPE   C4B 9434   1.445  11.946   4.028 -0.1705 -0.1221 -0.2741
  847POPS   CNO 9435   0.953   6.922   2.830 -0.0115 -0.1766  0.1499
  847POPS   PO4 9436   0.985   6.709   2.426 -0.0905  0.0968  0.0449
  847POPS   GL1 9437   1.088   6.369   2.754  0.2106 -0.3836  0.1371
  847POPS   GL2 9438   1.380   6.473   2.797  0.0544 -0.0968 -0.1215
  847POPS   C1A 9439   0.950   6.513   3.052 -0.2003  0.2136 -0.3367
  847POPS   D2A 9440   0.590   6.632   3.276 -0.0461 -0.2762  0.4528
  847POPS   C3A 9441   0.539   6.640   3.709  0.5999 -0.2411  0.1891
  847POPS   C4A 9442   0.398   6.705   4.099 -0.3186  0.1147 -0.1057
  847POPS   C1B 9443   1.384   6.615   3.227  0.0161 -0.0774  0.0933
  847POPS   C2B 9444   1.501   6.631   3.642  0.2204  0.0089  0.0776
  847POPS   C3B 9445   1.586   6.739   4.034 -0.1592 -0.0535  0.1618
  847POPS   C4B 9446   1.715   7.158   4.264 -0.1124 -0.2926  0.1570
  848POPE   NH3 9447  10.895  16.548   2.204 -0.1330 -0.2610  0.1798
  848POPE   PO4 9448  11.305  16.598   2.213  0.1037  0.0418  0.1908
  848POPE   GL1 9449  11.244  16.391   2.595  0.0939 -0.0256  0.2298
  848POPE   GL2 9450  11.554  16.314   2.625  0.0174 -0.0091 -0.1194
  848POPE   C1A 9451  11.286  16.282   3.040  0.0299 -0.2179 -0.1269
  848POPE   D2A 9452  11.308  16.407   3.475  0.0607  0.2304  0.2689
  848POPE   C3A 9453  11.275  16.704   3.747  0.0621  0.1970  0.2254
  848POPE   C4A 9454  11.096  16.776   4.125  0.0565  0.0835  0.1173
  848POPE   C1B 9455  11.776  16.069   2.935 -0.1212  0.2679  0.1519
  848POPE   C2B 9456  11.780  16.232   3.349 -0.2432 -0.0755 -0.0376
  848POPE   C3B 9457  11.684  16.395   3.757 -0.0964 -0.0228  0.2529
  848POPE   C4B 9458  11.826  16.325   4.062  0.0663  0.3161 -0.3632
  849POPC   NC3 9459  12.340  15.941   2.094 -0.1046 -0.2049  0.0056
  849POPC   PO4 9460  12.109  15.575   2.326 -0.0188  0.1450 -0.2928
  849POPC   GL1 9461  12.226  15.798   2.806  0.0756  0.0938  0.1450
  849POPC   GL2 9462  12.492  15.941   2.587 -0.2642 -0.0764  0.0911
  849POPC   C1A 9463  12.147  15.915   3.292 -0.0039 -0.2146 -0.0898
  849POPC   D2A 9464  12.112  16.092   3.652  0.1125 -0.0570 -0.0641
  849POPC   C3A 9465  11.973  15.873   3.914  0.0435 -0.1065 -0.4398
  849POPC   C4A 9466  11.761  15.523   3.972  0.1870  0.2454  0.3279
  849POPC   C1B 9467  12.556  16.165   3.017 -0.0586  0.0922  0.0904
  849POPC   C2B 9468  12.625  16.250   3.360 -0.2810  0.2582  0.0782
  849POPC   C3B 9469  12.564  16.240   3.690 -0.2519  0.0751  0.2048
  849POPC   C4B 9470  12.352  16.182   4.042 -0.1443  0.0469 -0.0295
  850POPE   NH3 9471   2.324  11.541   2.064 -0.1004  0.0428 -0.1269
  850POPE   PO4 9472   2.441  11.955   2.331  0.0856  0.0004 -0.0753
  850POPE   GL1 9473   2.450  11.797   2.771  0.0969 -0.3354 -0.1553
  850POPE   GL2 9474   2.711  11.886   2.840 -0.2402  0.5596 -0.0235
  850POPE   C1A 9475   2.465  11.682   3.291 -0.0060  0.0276 -0.3450
  850POPE   D2A 9476   2.144  11.663   3.491 -0.1087  0.1316 -0.0801
  850POPE   C3A 9477   2.188  11.907   3.875 -0.3851  0.1411  0.0140
  850POPE   C4A 9478   1.894  11.823   4.233 -0.2230 -0.1440  0.1458
  850POPE   C1B 9479   2.913  12.040   3.165  0.1939  0.0327 -0.2109
  850POPE   C2B 9480   3.001  12.187   3.501 -0.1252  0.0337  0.0895
  850POPE   C3B 9481   3.270  12.202   3.896  0.2186  0.2914 -0.0013
  850POPE   C4B 9482   3.174  12.199   4.293 -0.1016  0.0003 -0.1301
  851POPE   NH3 9483   0.716  10.286   2.399  0.0910 -0.0821 -0.0044
  851POPE   PO4 9484   0.380  10.504   2.332  0.2441 -0.1477  0.1310
  851POPE   GL1 9485   0.438  10.486   2.771  0.0653 -0.0408  0.0235
  851POPE   GL2 9486   0.721  10.438   2.881 -0.2252 -0.1295 -0.1029
  851POPE   C1A 9487   0.341  10.324   3.205  0.0783  0.1391  0.0450
  851POPE   D2A 9488   0.380  10.014   3.642  0.1345 -0.3958  0.0833
  851POPE   C3A 9489   0.070   9.861   3.950  0.3075  0.1123  0.1905
  851POPE   C4A 9490  -0.244   9.657   4.139 -0.0147  0.1163 -0.1903
  851POPE   C1B 9491   0.904  10.578   3.224 -0.0691  0.0654  0.0148
  851POPE   C2B 9492   1.136  10.757   3.697  0.2066 -0.3114 -0.0870
  851POPE   C3B 9493   1.183  10.883   4.130  0.2826 -0.1721 -0.1434
  851POPE   C4B 9494   1.161  10.727   4.642 -0.4070 -0.2760  0.1630
  852POPC   NC3 9495  12.166   0.175   1.838 -0.0430  0.1188  0.2457
  852POPC   PO4 9496  12.154   0.417   2.269  0.4412 -0.1273 -0.1114
  852POPC   GL1 9497  11.809   0.474   2.575  0.2584  0.0197 -0.0671
  852POPC   GL2 9498  11.634   0.264   2.590  0.2540 -0.1388  0.1700
  852POPC   C1A 9499  11.684   0.654   2.957 -0.3043  0.1175  0.2559
  852POPC   D2A 9500  11.487   0.643   3.350  0.2377  0.3933  0.0636
  852POPC   C3A 9501  11.606   1.030   3.535  0.1028 -0.0239 -0.1025
  852POPC   C4A 9502  11.755   1.309   3.791  0.1174 -0.0542 -0.1577
  852POPC   C1B 9503  11.372   0.201   2.886  0.0780  0.0699 -0.2939
  852POPC   C2B 9504  11.147   0.239   3.197 -0.0836 -0.2739  0.2675
  852POPC   C3B 9505  10.800   0.151   3.495  0.0451  0.1007  0.1569
  852POPC   C4B 9506  10.637   0.182   3.915 -0.2645  0.0294  0.2172
  853POSM   NC3 9507  15.624   9.395   1.787 -0.0919 -0.0416  0.3388
  853POSM   PO4 9508  15.971   9.571   2.111  0.1522 -0.1139 -0.3957
  853POSM   AM1 9509  16.105   9.553   2.534  0.3723  0.2736  0.0482
  853POSM   AM2 9510  16.150   9.202   2.625  0.1305 -0.2794  0.1232
  853POSM   T1A 9511  16.002   9.593   2.903 -0.1534  0.2203 -0.0693
  853POSM   C2A 9512  15.660   9.565   3.242 -0.0799  0.1523 -0.4438
  853POSM   C3A 9513  15.619   9.740   3.654 -0.3107 -0.1091 -0.1107
  853POSM   C1B 9514  16.418   8.994   2.932  0.1281 -0.1232  0.0045
  853POSM   D2B 9515  16.491   8.988   3.343  0.0710 -0.1314 -0.1308
  853POSM   C3B 9516  16.857   9.009   3.624  0.1758 -0.2853 -0.1599
  853POSM   C4B 9517  17.072   8.780   4.035 -0.1135  0.0959 -0.1989
  854POPE   NH3 9518   0.356   8.796   2.163 -0.3174 -0.3678 -0.0892
  854POPE   PO4 9519   0.208   8.374   2.228  0.1667 -0.0342  0.0943
  854POPE   GL1 9520   0.264   8.376   2.563 -0.2424  0.3132 -0.0085
  854POPE   GL2 9521   0.450   8.658   2.623 -0.3064 -0.0506  0.0260
  854POPE   C1A 9522  -0.055   8.307   2.898  0.1506  0.1486 -0.0883
  854POPE   D2A 9523  -0.174   8.310   3.289 -0.1521  0.2353 -0.1357
  854POPE   C3A 9524   0.076   8.540   3.500 -0.0730  0.1754  0.5162
  854POPE   C4A 9525   0.034   8.722   3.912 -0.1132  0.1346 -0.0790
  854POPE   C1B 9526   0.219   8.700   2.973 -0.2554 -0.1223 -0.0888
  854POPE   C2B 9527   0.520   8.770   3.275  0.0373  0.1982 -0.1773
  854POPE   C3B 9528   0.736   8.623   3.695 -0.1332  0.1506  0.2617
  854POPE   C4B 9529   0.763   8.363   4.077  0.2717  0.0506 -0.0019
  855POPE   NH3 9530  15.627  11.778   2.615  0.2267  0.0706  0.0917
  855POPE   PO4 9531  15.916  11.904   2.919 -0.5920  0.0732  0.2248
  855POPE   GL1 9532  15.605  12.119   3.145  0.0748  0.0347  0.0662
  855POPE   GL2 9533  15.415  12.173   2.913  0.2026 -0.1975  0.0038
  855POPE   C1A 9534  15.418  12.398   3.464 -0.0595  0.0149 -0.0623
  855POPE   D2A 9535  14.950  12.496   3.597  0.0553 -0.0734 -0.0295
  855POPE   C3A 9536  14.800  12.746   4.040  0.0358  0.1501 -0.0906
  855POPE   C4A 9537  14.728  12.800   4.398 -0.2407  0.1737  0.0637
  855POPE   C1B 9538  15.057  12.157   3.195  0.0566  0.0965 -0.1120
  855POPE   C2B 9539  14.637  12.303   3.203  0.0250 -0.0471  0.3146
  855POPE   C3B 9540  14.314  12.374   2.890  0.2975 -0.0535  0.0411
  855POPE   C4B 9541  14.079  12.512   2.687 -0.0509 -0.0117 -0.3834
  856POPE   NH3 9542   0.380   7.884   2.339  0.1742 -0.1610  0.0279
  856POPE   PO4 9543   0.058   7.540   2.063 -0.0337  0.2186 -0.1553
  856POPE   GL1 9544   0.074   7.426   2.498  0.2978  0.0679 -0.3141
  856POPE   GL2 9545   0.108   7.036   2.557  0.0694 -0.0051 -0.1023
  856POPE   C1A 9546   0.002   7.287   2.945 -0.0846  0.1767 -0.0007
  856POPE   D2A 9547   0.035   7.291   3.356 -0.2197  0.0605  0.0961
  856POPE   C3A 9548   0.124   6.880   3.469 -0.1572  0.0191 -0.1445
  856POPE   C4A 9549  -0.004   6.598   3.781 -0.5687  0.2648  0.2539
  856POPE   C1B 9550  -0.093   6.829   2.905 -0.0810 -0.0666 -0.0930
  856POPE   C2B 9551  -0.260   6.625   3.292  0.1183  0.0069  0.1546
  856POPE   C3B 9552  -0.481   6.465   3.684  0.1141  0.0729 -0.0729
  856POPE   C4B 9553  -0.548   6.623   4.015  0.1245  0.0949 -0.1084
  857POPS   CNO 9554  15.512  11.102   2.218  0.0328  0.2456 -0.3929
  857POPS   PO4 9555  15.477  11.249   2.668  0.3416 -0.0737  0.2951
  857POPS   GL1 9556  15.511  11.045   3.044 -0.2356 -0.4476  0.0301
  857POPS   GL2 9557  15.525  10.693   3.138 -0.1813  0.1960 -0.1717
  857POPS   C1A 9558  15.915  11.100   3.343 -0.0240  0.1164 -0.1463
  857POPS   D2A 9559  16.210  11.230   3.616 -0.0000  0.0248 -0.0188
  857POPS   C3A 9560  16.379  10.990   3.807  0.1665 -0.2715  0.0933
  857POPS   C4A 9561  16.693  10.840   4.170  0.2510  0.0050  0.2824
  857POPS   C1B 9562  15.558  10.712   3.656 -0.0050  0.2432  0.0910
  857POPS   C2B 9563  15.765  10.996   3.882 -0.0690 -0.0236 -0.1487
  857POPS   C3B 9564  16.082  11.254   4.076  0.4296 -0.1573 -0.5658
  857POPS   C4B 9565  16.392  11.337   4.314 -0.0034 -0.2466  0.0003
  858POPE   NH3 9566   4.293   0.759   2.477 -0.1908 -0.0068 -0.0130
  858POPE   PO4 9567   4.459   0.321   2.609  0.2017  0.3096 -0.0513
  858POPE   GL1 9568   4.415   0.612   2.944  0.0380 -0.0230 -0.0675
  858POPE   GL2 9569   4.516   0.975   2.919 -0.1799  0.0975  0.0735
  858POPE   C1A 9570   4.458   0.493   3.325 -0.0342  0.0531 -0.0155
  858POPE   D2A 9571   4.511   0.581   3.795 -0.0457  0.2866 -0.1374
  858POPE   C3A 9572   4.485   0.832   4.158 -0.0184  0.0004  0.2781
  858POPE   C4A 9573   4.609   1.200   4.359  0.1860  0.2575 -0.1994
  858POPE   C1B 9574   4.829   1.146   3.211  0.3039 -0.2230  0.1279
  858POPE   C2B 9575   5.230   1.176   3.332  0.1245 -0.0883 -0.0808
  858POPE   C3B 9576   5.457   0.879   3.552 -0.1291  0.0311  0.0845
  858POPE   C4B 9577   5.475   0.784   3.999 -0.0076 -0.0447 -0.1532
  859CHOL   ROH 9578  12.595  15.053   2.797  0.0894 -0.1757 -0.0118
  859CHOL    R1 9579  12.493  15.122   3.052 -0.0509 -0.1069 -0.0861
  859CHOL    R2 9580  12.354  14.942   3.210 -0.0357 -0.0986 -0.0659
  859CHOL    R3 9581  12.541  15.010   3.395 -0.1468  0.0702 -0.0127
  859CHOL    R4 9582  12.329  14.879   3.548  0.0009 -0.2866 -0.0971
  859CHOL    R5 9583  12.414  15.075   3.587 -0.2648 -0.1843  0.0017
  859CHOL    C1 9584  12.491  14.905   3.919 -0.0820 -0.2377 -0.0654
  859CHOL    C2 9585  12.579  15.146   4.165 -0.1258 -0.3401  0.1528
  860POPE   NH3 9586   3.509   1.530   2.280 -0.3090 -0.4041  0.0839
  860POPE   PO4 9587   3.908   1.496   2.427 -0.1121 -0.1976 -0.1600
  860POPE   GL1 9588   3.735   1.519   2.859 -0.1118  0.2640 -0.2166
  860POPE   GL2 9589   3.670   1.257   3.077  0.2316 -0.0445  0.0055
  860POPE   C1A 9590   3.530   1.814   3.109 -0.2706  0.0106 -0.2884
  860POPE   D2A 9591   3.305   1.830   3.475  0.2427  0.1491  0.0521
  860POPE   C3A 9592   3.519   2.018   3.946 -0.0524 -0.0000 -0.0005
  860POPE   C4A 9593   3.588   2.128   4.438  0.2039 -0.0454 -0.1355
  860POPE   C1B 9594   3.385   1.261   3.269  0.3316 -0.1508  0.0828
  860POPE   C2B 9595   3.443   1.402   3.655 -0.1183 -0.1129 -0.2700
  860POPE   C3B 9596   3.481   1.492   4.037  0.0951  0.0556 -0.1151
  860POPE   C4B 9597   3.827   1.658   4.248  0.2111 -0.1175 -0.3636
  861CHOL   ROH 9598   1.333   3.972   2.432 -0.0602 -0.1492  0.2100
  861CHOL    R1 9599   1.348   3.923   2.710  0.3634 -0.0002  0.2197
  861CHOL    R2 9600   1.522   4.059   2.876  0.2111  0.5248 -0.0205
  861CHOL    R3 9601   1.295   4.114   3.015  0.1993  0.0083  0.1885
  861CHOL    R4 9602   1.513   4.188   3.197  0.2124  0.6959 -0.0885
  861CHOL    R5 9603   1.347   4.054   3.241  0.6046  0.2749  0.1731
  861CHOL    C1 9604   1.295   4.315   3.514  0.2020  0.3107  0.0682
  861CHOL    C2 9605   1.245   4.378   3.859  0.1634  0.2761 -0.2396
  862CHOL   ROH 9606   8.419  16.351   2.897 -0.2962  0.0545  0.2875
  862CHOL    R1 9607   8.392  16.158   3.103 -0.2008  0.0254  0.2723
  862CHOL    R2 9608   8.556  15.937   3.122 -0.1782  0.0388  0.1781
  862CHOL    R3 9609   8.599  16.030   3.374 -0.0865  0.0033  0.1770
  862CHOL    R4 9610   8.555  15.743   3.408 -0.0030 -0.0229  0.1391
  862CHOL    R5 9611   8.450  15.904   3.511  0.0014 -0.0634  0.2192
  862CHOL    C1 9612   8.594  15.718   3.811  0.1850 -0.0921  0.1153
  862CHOL    C2 9613   8.396  15.579   4.143  0.3525 -0.3217  0.0747
  863POPE   NH3 9614   9.034  16.355   2.202  0.1081 -0.0508 -0.1183
  863POPE   PO4 9615   9.505  16.455   2.297  0.0579 -0.2434 -0.0887
  863POPE   GL1 9616   9.249  16.662   2.609  0.2255 -0.0001  0.1016
  863POPE   GL2 9617   9.035  16.781   2.473  0.3610 -0.1522 -0.2239
  863POPE   C1A 9618   9.165  16.709   3.042 -0.0705  0.2762  0.0612
  863POPE   D2A 9619   9.274  17.003   3.346  0.0380 -0.1967  0.1467
  863POPE   C3A 9620   9.036  17.060   3.764  0.1570  0.3327  0.0518
  863POPE   C4A 9621   8.904  17.146   4.204  0.0836 -0.2382  0.1078
  863POPE   C1B 9622   8.696  16.808   2.868  0.1815  0.1181 -0.2337
  863POPE   C2B 9623   8.815  17.029   3.216  0.0315  0.0225  0.1889
  863POPE   C3B 9624   8.574  17.008   3.621 -0.0277  0.2340  0.0064
  863POPE   C4B 9625   8.461  16.966   4.038 -0.2181  0.2610 -0.0235
  864POPS   CNO 9626   7.450  15.520   2.261  0.1021  0.2814 -0.3937
  864POPS   PO4 9627   7.149  15.364   2.389  0.1826  0.0898 -0.0805
  864POPS   GL1 9628   7.074  15.406   2.752 -0.0667 -0.1727  0.2171
  864POPS   GL2 9629   7.459  15.424   2.783  0.0081 -0.3720 -0.2491
  864POPS   C1A 9630   7.252  15.311   3.246 -0.0171  0.0915  0.2066
  864POPS   D2A 9631   7.165  15.352   3.617  0.1266 -0.0117  0.0384
  864POPS   C3A 9632   7.527  15.306   3.898 -0.4044 -0.0733 -0.2089
  864POPS   C4A 9633   7.821  15.356   4.180 -0.0598  0.0339  0.1507
  864POPS   C1B 9634   7.765  15.293   3.124 -0.1834 -0.2197 -0.1496
  864POPS   C2B 9635   7.886  15.256   3.552 -0.0619 -0.2761 -0.2634
  864POPS   C3B 9636   8.192  15.314   3.746  0.3140  0.3078 -0.1342
  864POPS   C4B 9637   8.293  15.016   4.074 -0.1414 -0.0739  0.3227
  865POPE   NH3 9638  10.280   0.050   1.769  0.1719  0.0252  0.0755
  865POPE   PO4 9639  10.432   0.177   2.195 -0.0821  0.0088  0.0649
  865POPE   GL1 9640  10.543   0.108   2.626 -0.3947 -0.0299  0.2228
  865POPE   GL2 9641  10.856   0.092   2.700  0.1651  0.1577 -0.0638
  865POPE   C1A 9642  10.345  -0.067   2.941  0.1370 -0.1391 -0.4271
  865POPE   D2A 9643   9.975  -0.106   3.171 -0.0446  0.1213 -0.0997
  865POPE   C3A 9644   9.936  -0.130   3.623 -0.1634  0.1419 -0.2821
  865POPE   C4A 9645   9.769  -0.131   4.047  0.2315 -0.3411  0.2978
  865POPE   C1B 9646  10.670   0.323   3.058 -0.2830 -0.1403  0.0361
  865POPE   C2B 9647  10.309   0.267   3.401  0.2832 -0.1769  0.3115
  865POPE   C3B 9648  10.138   0.323   3.814 -0.0949  0.3631 -0.1961
  865POPE   C4B 9649  10.057   0.595   4.184  0.0430 -0.0382  0.1309
  866CHOL   ROH 9650   1.474   3.146   3.006 -0.0550 -0.1897 -0.0621
  866CHOL    R1 9651   1.364   3.221   3.256 -0.1910 -0.1259 -0.1397
  866CHOL    R2 9652   1.148   3.091   3.369 -0.0927 -0.2655 -0.1042
  866CHOL    R3 9653   1.316   3.066   3.582 -0.1140  0.0457 -0.0451
  866CHOL    R4 9654   1.049   3.029   3.694 -0.0986 -0.2411 -0.1017
  866CHOL    R5 9655   1.200   3.170   3.763 -0.2941 -0.0163 -0.1247
  866CHOL    C1 9656   1.148   2.969   4.083 -0.1221  0.0652 -0.0447
  866CHOL    C2 9657   1.254   3.193   4.386  0.0620 -0.2789  0.2060
  867POSM   NC3 9658   7.770   0.228   2.193 -0.0570  0.0257  0.0409
  867POSM   PO4 9659   7.559  -0.176   2.304 -0.0132  0.2055  0.4140
  867POSM   AM1 9660   7.542  -0.402   2.735 -0.0348 -0.3870  0.2399
  867POSM   AM2 9661   7.598  -0.663   2.570 -0.0653 -0.0979 -0.0943
  867POSM   T1A 9662   7.505  -0.308   3.114  0.0116 -0.2041  0.2096
  867POSM   C2A 9663   7.560  -0.386   3.632  0.1040 -0.0321 -0.1608
  867POSM   C3A 9664   7.448  -0.537   4.027  0.0139 -0.3261 -0.4522
  867POSM   C1B 9665   7.534  -0.818   3.140  0.2789 -0.1723 -0.1642
  867POSM   D2B 9666   7.577  -0.914   3.523  0.0524 -0.0316 -0.3381
  867POSM   C3B 9667   7.898  -0.842   3.816  0.1630 -0.0421  0.3404
  867POSM   C4B 9668   7.898  -0.771   4.243 -0.1214 -0.0381 -0.1159
  868POPC   NC3 9669  16.381   9.185   2.209 -0.0993 -0.4242  0.0101
  868POPC   PO4 9670  16.766   9.273   2.174 -0.0028 -0.0404  0.0671
  868POPC   GL1 9671  16.744   9.141   2.544 -0.1176  0.2852 -0.0087
  868POPC   GL2 9672  16.599   9.453   2.726  0.0436 -0.0227  0.0884
  868POPC   C1A 9673  16.859   9.184   3.014  0.0497  0.2322  0.1430
  868POPC   D2A 9674  16.990   9.427   3.327  0.0785  0.0821  0.1197
  868POPC   C3A 9675  17.059   9.518   3.684  0.0910  0.0167  0.0886
  868POPC   C4A 9676  17.126   9.712   4.063  0.0078 -0.1508 -0.0411
  868POPC   C1B 9677  16.424   9.433   3.125  0.1974 -0.0513 -0.1809
  868POPC   C2B 9678  16.149   9.530   3.440 -0.0427 -0.1741  0.1412
  868POPC   C3B 9679  15.994   9.468   3.842  0.0863 -0.0098  0.0202
  868POPC   C4B 9680  15.963   9.384   4.247 -0.2324  0.0583  0.0520
  869POPE   NH3 9681  14.733   3.060   2.509  0.0412 -0.2213 -0.3823
  869POPE   PO4 9682  15.019   3.442   2.786 -0.0920  0.1495  0.0137
  869POPE   GL1 9683  15.057   3.298   2.979 -0.0525 -0.1411 -0.1856
  869POPE   GL2 9684  14.696   3.176   3.093 -0.2925 -0.0551  0.0838
  869POPE   C1A 9685  15.262   3.337   3.349 -0.1537  0.0953  0.1026
  869POPE   D2A 9686  15.339   3.254   3.850 -0.0486  0.1220  0.2583
  869POPE   C3A 9687  15.426   3.594   4.209  0.0346  0.2353 -0.0885
  869POPE   C4A 9688  15.512   3.773   4.604 -0.1122  0.1218  0.3694
  869POPE   C1B 9689  14.828   3.119   3.559 -0.1436 -0.3216  0.1871
  869POPE   C2B 9690  14.945   3.033   4.009  0.0557  0.2049 -0.3382
  869POPE   C3B 9691  15.011   2.909   4.315 -0.0885 -0.3206 -0.0521
  869POPE   C4B 9692  15.330   2.688   4.741  0.0455 -0.1063 -0.2640
  870POPC   NC3 9693  16.548   6.661   1.960  0.0277 -0.0426  0.0557
  870POPC   PO4 9694  16.617   6.416   2.287  0.2034  0.1670  0.1022
  870POPC   GL1 9695  16.497   6.421   2.661 -0.1557  0.0874  0.0821
  870POPC   GL2 9696  16.247   6.308   2.743  0.1133 -0.3956 -0.1066
  870POPC   C1A 9697  16.749   6.394   3.044 -0.2754  0.0576 -0.1317
  870POPC   D2A 9698  16.869   6.199   3.424 -0.3619 -0.0366 -0.3220
  870POPC   C3A 9699  16.980   6.182   3.930  0.2924  0.0648 -0.1051
  870POPC   C4A 9700  17.136   6.023   4.370  0.3559  0.0677  0.2882
  870POPC   C1B 9701  16.153   6.118   3.230  0.3095 -0.1470 -0.1607
  870POPC   C2B 9702  16.333   6.070   3.536  0.0776  0.1287  0.1483
  870POPC   C3B 9703  16.432   6.175   3.961  0.0417 -0.2466 -0.0419
  870POPC   C4B 9704  16.622   6.170   4.332 -0.2321 -0.1708  0.0449
  871POPE   NH3 9705   1.396   4.438   2.387 -0.0500  0.1740  0.0812
  871POPE   PO4 9706   1.169   4.783   2.197  0.1125  0.1396  0.1049
  871POPE   GL1 9707   1.241   4.868   2.587 -0.1670  0.3069 -0.2228
  871POPE   GL2 9708   1.304   4.632   2.874 -0.0606 -0.1346 -0.2165
  871POPE   C1A 9709   1.007   4.975   2.983 -0.1436  0.0370  0.3439
  871POPE   D2A 9710   0.931   5.016   3.450 -0.2248  0.2755 -0.1090
  871POPE   C3A 9711   0.839   5.231   3.873 -0.0171  0.1478  0.1372
  871POPE   C4A 9712   0.650   5.603   4.156 -0.1016 -0.2520  0.0277
  871POPE   C1B 9713   1.426   4.704   3.276 -0.3185 -0.2895 -0.1523
  871POPE   C2B 9714   1.448   4.799   3.685 -0.0212  0.0653  0.3958
  871POPE   C3B 9715   1.426   5.253   3.888 -0.0036  0.2469  0.0338
  871POPE   C4B 9716   1.263   5.700   3.902  0.1099 -0.2264  0.0117
  872POPE   NH3 9717   2.963   2.217   1.972  0.0433 -0.0268  0.1051
  872POPE   PO4 9718   3.165   2.008   2.229 -0.0798  0.2176  0.0539
  872POPE   GL1 9719   3.241   1.850   2.620 -0.2087  0.0099  0.0587
  872POPE   GL2 9720   2.952   2.111   2.764 -0.0449 -0.0633 -0.2666
  872POPE   C1A 9721   3.033   1.699   3.049 -0.1158  0.1797 -0.3797
  872POPE   D2A 9722   2.794   1.753   3.368 -0.1838 -0.1387 -0.1766
  872POPE   C3A 9723   2.878   1.692   3.792 -0.1483 -0.2711  0.2615
  872POPE   C4A 9724   3.022   1.518   4.153  0.1032  0.1849  0.1333
  872POPE   C1B 9725   2.602   2.075   3.081 -0.2781 -0.0174 -0.0413
  872POPE   C2B 9726   2.300   2.075   3.387  0.0743  0.3462  0.0633
  872POPE   C3B 9727   2.352   1.746   3.628 -0.1020  0.0659  0.0688
  872POPE   C4B 9728   2.235   1.768   4.076  0.1455  0.1235  0.0181
  873POPC   NC3 9729  14.662   4.233   2.688  0.1216 -0.0593  0.1733
  873POPC   PO4 9730  15.005   4.381   2.588  0.1224 -0.0323 -0.1095
  873POPC   GL1 9731  15.064   4.151   2.984  0.2835  0.3824  0.1353
  873POPC   GL2 9732  15.258   3.876   2.914 -0.1849 -0.0044 -0.0444
  873POPC   C1A 9733  14.835   4.239   3.377 -0.2679  0.0745  0.0962
  873POPC   D2A 9734  14.707   4.261   3.819 -0.1944 -0.0764 -0.0855
  873POPC   C3A 9735  14.525   4.035   4.051  0.1915 -0.2239 -0.1621
  873POPC   C4A 9736  14.541   3.761   4.544  0.1074 -0.1774  0.2196
  873POPC   C1B 9737  15.301   3.858   3.327 -0.1605 -0.1043  0.1044
  873POPC   C2B 9738  15.426   3.812   3.713  0.2078 -0.1478  0.1085
  873POPC   C3B 9739  15.597   3.992   3.985 -0.1035  0.1861  0.1781
  873POPC   C4B 9740  15.391   4.167   4.277  0.1848 -0.1278 -0.1707
  874POPC   NC3 9741   5.091   0.784   2.104 -0.0758  0.2768  0.1304
  874POPC   PO4 9742   4.845   0.609   2.322  0.3097  0.2639 -0.1169
  874POPC   GL1 9743   4.861   0.594   2.793 -0.4590 -0.0105  0.1816
  874POPC   GL2 9744   4.783   0.286   2.979 -0.2847 -0.0001  0.1311
  874POPC   C1A 9745   5.100   0.669   3.159 -0.2398 -0.0645 -0.4637
  874POPC   D2A 9746   4.887   0.797   3.529 -0.0490  0.0935 -0.0355
  874POPC   C3A 9747   4.442   1.050   3.488  0.0170 -0.0119 -0.3781
  874POPC   C4A 9748   4.103   1.174   3.316 -0.1411 -0.1657  0.0599
  874POPC   C1B 9749   4.933   0.256   3.386  0.1420  0.2897 -0.1573
  874POPC   C2B 9750   5.038   0.414   3.769 -0.1253 -0.2332 -0.2409
  874POPC   C3B 9751   4.951   0.827   4.003  0.0724 -0.1671  0.0482
  874POPC   C4B 9752   4.748   1.221   3.887  0.1069  0.0566 -0.2067
  875POPC   NC3 9753  12.669   1.539   2.192  0.2827 -0.1226 -0.1839
  875POPC   PO4 9754  12.236   1.717   2.320  0.0485  0.2877  0.3929
  875POPC   GL1 9755  12.258   1.749   2.762 -0.0635  0.1296  0.2407
  875POPC   GL2 9756  11.986   1.841   2.888 -0.3707 -0.0125  0.1137
  875POPC   C1A 9757  12.346   1.663   3.169 -0.3442 -0.3444  0.1130
  875POPC   D2A 9758  12.399   1.532   3.542  0.1586 -0.0072  0.4126
  875POPC   C3A 9759  12.139   1.721   3.887 -0.2222 -0.0961 -0.1659
  875POPC   C4A 9760  11.804   1.725   4.140 -0.3963  0.5154  0.3646
  875POPC   C1B 9761  12.120   2.148   3.232  0.3529 -0.1013 -0.0716
  875POPC   C2B 9762  12.240   2.174   3.590 -0.0648  0.1779  0.0023
  875POPC   C3B 9763  12.555   1.983   3.873 -0.1491 -0.1348 -0.2744
  875POPC   C4B 9764  12.757   1.640   3.936  0.1403  0.0293  0.0149
  876POPC   NC3 9765   3.427  14.417   2.120 -0.0283 -0.0695 -0.3283
  876POPC   PO4 9766   3.289  14.282   2.432 -0.0814  0.2349  0.2363
  876POPC   GL1 9767   3.256  14.471   2.733  0.4801  0.1019 -0.0860
  876POPC   GL2 9768   3.301  14.173   2.939  0.1142 -0.0503  0.0950
  876POPC   C1A 9769   3.379  14.660   3.163  0.0838  0.2632  0.0001
  876POPC   D2A 9770   3.270  14.556   3.634  0.1668 -0.0655 -0.1198
  876POPC   C3A 9771   2.979  14.117   3.765  0.0183  0.2978  0.1014
  876POPC   C4A 9772   2.831  13.941   4.084  0.2328  0.0759 -0.1430
  876POPC   C1B 9773   3.428  14.210   3.310 -0.2697  0.1097  0.0992
  876POPC   C2B 9774   3.469  14.109   3.728 -0.3248  0.0223 -0.0948
  876POPC   C3B 9775   3.815  14.124   4.040 -0.0013 -0.1841 -0.0813
  876POPC   C4B 9776   4.221  14.080   4.344  0.1311  0.2047 -0.0252
  877POPE   NH3 9777   3.255  14.870   2.420  0.2314  0.0042 -0.0813
  877POPE   PO4 9778   3.751  14.700   2.385  0.0481  0.1044 -0.0516
  877POPE   GL1 9779   3.747  14.488   2.810 -0.0204 -0.0111  0.0424
  877POPE   GL2 9780   3.808  14.199   2.842  0.3366  0.0703  0.0299
  877POPE   C1A 9781   3.891  14.562   3.265  0.0817 -0.0306  0.0868
  877POPE   D2A 9782   3.758  14.700   3.770  0.0541  0.1740 -0.0015
  877POPE   C3A 9783   3.511  14.547   4.143  0.0600  0.3761 -0.0738
  877POPE   C4A 9784   3.203  14.218   4.237 -0.6321 -0.1931 -0.0461
  877POPE   C1B 9785   3.949  14.000   3.215 -0.0136 -0.0131  0.1604
  877POPE   C2B 9786   3.925  13.717   3.571 -0.1216 -0.1581 -0.0012
  877POPE   C3B 9787   3.839  13.602   3.962  0.0872 -0.2485 -0.2207
  877POPE   C4B 9788   3.768  13.708   4.416  0.0112 -0.0762 -0.0514
  878POSM   NC3 9789  10.497   1.253   1.917 -0.1206 -0.0155 -0.1949
  878POSM   PO4 9790  10.486   1.643   2.041 -0.2352  0.0310  0.1920
  878POSM   AM1 9791  10.520   1.809   2.483 -0.0247  0.1055 -0.1436
  878POSM   AM2 9792  10.174   1.749   2.552  0.1305  0.0629 -0.0944
  878POSM   T1A 9793  10.752   1.640   2.884  0.3153  0.2578  0.1412
  878POSM   C2A 9794  10.979   1.784   3.232 -0.0196 -0.1433 -0.2935
  878POSM   C3A 9795  11.137   2.140   3.480 -0.0442 -0.1310 -0.0232
  878POSM   C1B 9796  10.267   1.526   2.904  0.2500 -0.0814 -0.1123
  878POSM   D2B 9797  10.131   1.191   3.271  0.0834 -0.1635 -0.1786
  878POSM   C3B 9798  10.412   0.883   3.317 -0.0138 -0.0782  0.1970
  878POSM   C4B 9799  10.609   0.592   3.612  0.2264 -0.1986  0.2084
  879POSM   NC3 9800  12.788  14.626   2.490  0.1191 -0.0860 -0.1923
  879POSM   PO4 9801  13.039  14.218   2.411  0.2090 -0.0945  0.0842
  879POSM   AM1 9802  13.309  14.274   2.649 -0.1834  0.0563 -0.1351
  879POSM   AM2 9803  13.586  14.297   2.637  0.3188 -0.0989  0.1031
  879POSM   T1A 9804  13.299  14.542   3.040 -0.1928  0.1060  0.1811
  879POSM   C2A 9805  13.444  14.684   3.341  0.0395  0.2052 -0.0781
  879POSM   C3A 9806  13.483  14.666   3.767 -0.0958  0.1767 -0.2698
  879POSM   C1B 9807  13.568  14.099   3.044 -0.0349  0.2602  0.1269
  879POSM   D2B 9808  13.581  14.098   3.517  0.1578  0.0016 -0.0279
  879POSM   C3B 9809  13.526  14.087   3.867 -0.2085 -0.1533 -0.1306
  879POSM   C4B 9810  13.338  13.945   4.220  0.1350 -0.0732  0.2318
  880POPS   CNO 9811  13.086   2.779   2.333  0.1104  0.0920  0.0839
  880POPS   PO4 9812  12.815   3.127   2.466 -0.2052  0.1573 -0.3849
  880POPS   GL1 9813  12.641   3.115   2.826  0.0770 -0.0442 -0.1223
  880POPS   GL2 9814  12.918   3.070   3.221  0.3185  0.1204 -0.0886
  880POPS   C1A 9815  12.401   3.050   3.217  0.4795  0.0298 -0.0696
  880POPS   D2A 9816  12.292   2.928   3.715  0.0538  0.1663 -0.0095
  880POPS   C3A 9817  12.104   2.542   3.874 -0.0383  0.1471 -0.0834
  880POPS   C4A 9818  12.022   2.184   4.072  0.0288 -0.2460 -0.1352
  880POPS   C1B 9819  13.085   2.932   3.446  0.0803 -0.1756  0.0638
  880POPS   C2B 9820  12.831   2.836   3.806  0.3105  0.0682 -0.2761
  880POPS   C3B 9821  12.514   3.058   4.114 -0.1237 -0.1976  0.1381
  880POPS   C4B 9822  12.332   3.291   4.430 -0.1803  0.0568  0.2908
  881POPC   NC3 9823   4.972  15.033   2.497  0.3881  0.3067 -0.1862
  881POPC   PO4 9824   4.566  14.822   2.380 -0.0884 -0.1861  0.2688
  881POPC   GL1 9825   4.549  14.826   2.819 -0.1266  0.2368 -0.4304
  881POPC   GL2 9826   4.788  14.943   2.986  0.0755 -0.3590 -0.2116
  881POPC   C1A 9827   4.261  14.884   3.127  0.0363 -0.0810  0.0771
  881POPC   D2A 9828   4.316  14.931   3.615 -0.0675  0.1138  0.3441
  881POPC   C3A 9829   4.501  14.957   3.917  0.3034 -0.0444  0.3757
  881POPC   C4A 9830   4.732  15.330   4.158  0.1741  0.1143 -0.2170
  881POPC   C1B 9831   4.696  14.692   3.348 -0.2285  0.0922  0.1845
  881POPC   C2B 9832   4.643  14.480   3.685  0.0315  0.0395  0.1249
  881POPC   C3B 9833   4.765  14.545   4.133  0.0285 -0.0954  0.2025
  881POPC   C4B 9834   4.924  14.516   4.510 -0.0828  0.1110 -0.0042
  882POPE   NH3 9835   0.994  11.520   2.743 -0.0065  0.2577  0.1232
  882POPE   PO4 9836   1.183  11.170   2.557 -0.1045 -0.1185  0.0804
  882POPE   GL1 9837   1.337  10.989   2.867  0.2223  0.0734 -0.1341
  882POPE   GL2 9838   1.474  10.718   2.748 -0.0683  0.0368  0.3675
  882POPE   C1A 9839   1.363  10.856   3.257 -0.3005  0.1312  0.0164
  882POPE   D2A 9840   1.405  11.129   3.604  0.4135 -0.0982  0.0400
  882POPE   C3A 9841   1.677  11.086   3.999 -0.2977  0.0444 -0.0392
  882POPE   C4A 9842   1.679  10.889   4.448  0.1602 -0.3069 -0.3118
  882POPE   C1B 9843   1.332  10.433   2.970 -0.0170 -0.0445  0.0988
  882POPE   C2B 9844   1.324  10.398   3.397  0.1051 -0.0173  0.1350
  882POPE   C3B 9845   1.247  10.261   3.875 -0.0676  0.2998 -0.0775
  882POPE   C4B 9846   1.215  10.436   4.291 -0.1294 -0.0368  0.0156
  883POSM   NC3 9847   1.748  13.398   1.992  0.2034  0.2207  0.0140
  883POSM   PO4 9848   1.542  13.674   2.278  0.0964 -0.3129  0.2226
  883POSM   AM1 9849   1.476  13.687   2.640  0.0929  0.0793  0.1974
  883POSM   AM2 9850   1.214  13.542   2.717 -0.2039  0.4318 -0.0543
  883POSM   T1A 9851   1.550  13.604   3.123 -0.1098 -0.0796  0.2988
  883POSM   C2A 9852   1.617  13.751   3.521 -0.3951  0.2666  0.0264
  883POSM   C3A 9853   1.665  14.078   3.849  0.0536 -0.0305 -0.0405
  883POSM   C1B 9854   1.064  13.498   3.137  0.2309 -0.0709 -0.1364
  883POSM   D2B 9855   1.284  13.298   3.505 -0.0804  0.0016 -0.1411
  883POSM   C3B 9856   1.378  13.075   3.800  0.1130  0.2764  0.1256
  883POSM   C4B 9857   1.541  13.005   4.100  0.1264 -0.2856  0.1079
  884POPS   CNO 9858  11.327   0.810   1.746 -0.1912  0.0343  0.1343
  884POPS   PO4 9859  11.186   0.813   2.107 -0.2759 -0.3162  0.0510
  884POPS   GL1 9860  11.297   0.688   2.439 -0.0684 -0.2424  0.3020
  884POPS   GL2 9861  11.147   0.408   2.455  0.3089 -0.2187 -0.3769
  884POPS   C1A 9862  11.237   0.655   2.901  0.0957 -0.1806 -0.0495
  884POPS   D2A 9863  10.949   0.725   3.152 -0.0473  0.2358 -0.1447
  884POPS   C3A 9864  11.037   0.762   3.642 -0.0461 -0.1518  0.0763
  884POPS   C4A 9865  11.283   0.590   3.836 -0.1263 -0.1394 -0.1838
  884POPS   C1B 9866  10.811   0.616   2.667 -0.0597 -0.2324 -0.2277
  884POPS   C2B 9867  10.395   0.603   2.824  0.2171  0.0409  0.1973
  884POPS   C3B 9868  10.091   0.654   2.959 -0.0274  0.1275 -0.4071
  884POPS   C4B 9869   9.782   0.976   2.883 -0.1193 -0.0089  0.2271
  885CHOL   ROH 9870   0.178   7.870   2.809  0.2691 -0.1438  0.0050
  885CHOL    R1 9871   0.091   7.740   3.044  0.2181 -0.0011  0.0687
  885CHOL    R2 9872   0.137   7.842   3.297 -0.0541  0.2843  0.0095
  885CHOL    R3 9873  -0.132   7.816   3.322 -0.0514  0.0642 -0.1636
  885CHOL    R4 9874  -0.035   7.854   3.596 -0.2442 -0.0011 -0.0846
  885CHOL    R5 9875  -0.161   7.691   3.524 -0.0768 -0.0635 -0.2431
  885CHOL    C1 9876  -0.388   7.836   3.794 -0.3524 -0.3740 -0.3019
  885CHOL    C2 9877  -0.563   8.075   4.068  0.0273  0.0577  0.1927
  886POSM   NC3 9878   1.083   8.519   2.042 -0.1222 -0.1757 -0.1058
  886POSM   PO4 9879   0.908   8.895   2.020  0.2407 -0.1348  0.2071
  886POSM   AM1 9880   0.947   8.720   2.515 -0.0306 -0.0441  0.1633
  886POSM   AM2 9881   1.005   8.941   2.712 -0.1699 -0.1673 -0.0292
  886POSM   T1A 9882   0.817   8.508   2.929 -0.0503 -0.0243 -0.0448
  886POSM   C2A 9883   0.922   8.377   3.277  0.0699 -0.0004  0.0131
  886POSM   C3A 9884   0.928   8.087   3.595  0.0998  0.0714 -0.0646
  886POSM   C1B 9885   0.836   9.050   3.012  0.1852 -0.1946 -0.1630
  886POSM   D2B 9886   0.759   9.165   3.526 -0.0239 -0.2874 -0.1867
  886POSM   C3B 9887   0.762   9.180   3.941 -0.0128  0.2003  0.1179
  886POSM   C4B 9888   0.801   9.218   4.324  0.0529 -0.5108 -0.0647
  887POPE   NH3 9889   3.371  13.766   2.322 -0.2236 -0.0943  0.1280
  887POPE   PO4 9890   3.168  13.435   2.508 -0.0520  0.1100  0.1494
  887POPE   GL1 9891   3.147  13.394   2.959 -0.1951  0.4646  0.3137
  887POPE   GL2 9892   3.167  13.035   2.920 -0.0071 -0.0290  0.3739
  887POPE   C1A 9893   3.179  13.248   3.383  0.1254  0.1732  0.5060
  887POPE   D2A 9894   2.998  13.312   3.807 -0.3492 -0.2904 -0.2757
  887POPE   C3A 9895   2.962  12.944   4.026  0.0225  0.0575  0.0275
  887POPE   C4A 9896   2.921  12.531   3.954 -0.2626 -0.0518  0.2522
  887POPE   C1B 9897   2.849  13.008   3.108  0.0341 -0.0053 -0.1042
  887POPE   C2B 9898   2.722  13.002   3.534 -0.2201 -0.0870 -0.1385
  887POPE   C3B 9899   2.531  13.176   3.894 -0.4621 -0.0489 -0.0490
  887POPE   C4B 9900   2.534  13.526   4.104  0.0533 -0.2388  0.2471
  888POPC   NC3 9901  16.468  10.280   2.278  0.2452  0.1208  0.0003
  888POPC   PO4 9902  16.840  10.037   2.159  0.0980  0.1241 -0.0069
  888POPC   GL1 9903  16.781   9.957   2.581  0.0795  0.2293  0.0491
  888POPC   GL2 9904  16.525  10.017   2.676  0.2737 -0.1448 -0.0225
  888POPC   C1A 9905  16.884   9.829   2.998  0.0478 -0.1773 -0.1225
  888POPC   D2A 9906  16.647   9.853   3.325 -0.1740 -0.2063  0.0643
  888POPC   C3A 9907  16.583   9.449   3.609  0.0684  0.0034  0.0384
  888POPC   C4A 9908  16.714   9.272   4.053  0.1646 -0.1982 -0.0429
  888POPC   C1B 9909  16.288   9.978   2.942  0.0644 -0.0707 -0.1014
  888POPC   C2B 9910  16.041   9.968   3.288 -0.0470  0.0510  0.0675
  888POPC   C3B 9911  16.008  10.048   3.776 -0.0900 -0.0131  0.0756
  888POPC   C4B 9912  15.867   9.832   4.110  0.2251 -0.0962  0.1491
  889POSM   NC3 9913  10.476  15.365   2.330 -0.0849 -0.2507  0.2573
  889POSM   PO4 9914  10.098  15.716   2.201 -0.0350 -0.2143 -0.0026
  889POSM   AM1 9915   9.890  15.762   2.473 -0.0154  0.1920  0.0255
  889POSM   AM2 9916   9.844  16.104   2.439  0.0625  0.0789  0.1217
  889POSM   T1A 9917   9.682  15.689   2.799 -0.0623 -0.0021  0.1054
  889POSM   C2A 9918   9.528  15.700   3.178  0.2956  0.2394  0.3457
  889POSM   C3A 9919   9.595  15.774   3.594 -0.0321  0.0506  0.1533
  889POSM   C1B 9920   9.953  16.067   2.914  0.3402 -0.0217  0.0031
  889POSM   D2B 9921  10.104  15.982   3.404  0.0118  0.1707 -0.0084
  889POSM   C3B 9922   9.920  15.993   3.787 -0.1346 -0.0983 -0.0139
  889POSM   C4B 9923   9.485  16.051   3.968 -0.1319 -0.1564 -0.1249
  890POPC   NC3 9924   2.617   1.355   2.040 -0.2437 -0.1632  0.1549
  890POPC   PO4 9925   2.447   1.593   2.360  0.3309 -0.0909  0.1247
  890POPC   GL1 9926   2.415   1.779   2.698 -0.1153 -0.1760  0.1110
  890POPC   GL2 9927   2.275   2.072   2.635 -0.3102 -0.1137 -0.3418
  890POPC   C1A 9928   2.410   1.572   3.153 -0.2442  0.0357 -0.0062
  890POPC   D2A 9929   2.373   1.273   3.466  0.3173  0.2337  0.4340
  890POPC   C3A 9930   2.495   1.361   3.953 -0.1354  0.0119 -0.1392
  890POPC   C4A 9931   2.696   1.173   4.422 -0.0043 -0.2816  0.1058
  890POPC   C1B 9932   2.104   2.194   2.973  0.6538 -0.0734 -0.1129
  890POPC   C2B 9933   1.744   2.171   3.192  0.0029  0.2292  0.1756
  890POPC   C3B 9934   1.770   1.998   3.618 -0.0981  0.2994 -0.1857
  890POPC   C4B 9935   1.795   1.995   4.070 -0.0129 -0.1271 -0.0261
  891POPC   NC3 9936  15.688   6.973   1.606 -0.0308  0.0240 -0.1757
  891POPC   PO4 9937  15.513   6.716   1.987 -0.2220  0.1820 -0.2586
  891POPC   GL1 9938  15.679   6.723   2.415  0.2291 -0.1124  0.1368
  891POPC   GL2 9939  15.755   6.427   2.507 -0.0742  0.1071  0.1720
  891POPC   C1A 9940  15.489   6.897   2.720  0.0166 -0.0427 -0.0967
  891POPC   D2A 9941  15.427   6.837   3.229  0.0387 -0.0366 -0.0758
  891POPC   C3A 9942  15.809   6.993   3.495 -0.1998  0.0048 -0.0703
  891POPC   C4A 9943  16.247   6.955   3.675  0.1744  0.0241  0.0541
  891POPC   C1B 9944  15.797   5.954   2.679  0.3058 -0.1821  0.3064
  891POPC   C2B 9945  16.176   5.718   2.859 -0.0757  0.0443 -0.0044
  891POPC   C3B 9946  16.541   5.888   3.059  0.3503  0.1097 -0.0211
  891POPC   C4B 9947  16.940   5.802   3.101 -0.2867 -0.0918  0.0129
  892POPC   NC3 9948  13.477   3.062   2.447 -0.0742 -0.0214 -0.0220
  892POPC   PO4 9949  13.212   3.398   2.635  0.1178 -0.0790  0.1874
  892POPC   GL1 9950  13.310   3.077   2.905  0.0698  0.1520  0.0085
  892POPC   GL2 9951  13.103   2.823   2.894 -0.0142  0.1214 -0.2528
  892POPC   C1A 9952  13.535   3.166   3.325  0.0146  0.2139 -0.0455
  892POPC   D2A 9953  13.453   3.101   3.779 -0.0491 -0.0492 -0.0586
  892POPC   C3A 9954  13.698   2.971   3.985  0.4096  0.0860 -0.0239
  892POPC   C4A 9955  13.930   3.257   4.023  0.2506  0.1737 -0.1096
  892POPC   C1B 9956  12.704   2.649   3.077  0.2774 -0.1355 -0.0446
  892POPC   C2B 9957  12.594   2.528   3.576  0.0334  0.1370  0.1281
  892POPC   C3B 9958  12.575   2.435   4.074 -0.3779 -0.2215  0.0538
  892POPC   C4B 9959  12.739   2.333   4.500 -0.0482  0.0318  0.1839
  893POPC   NC3 9960   6.200  16.452   2.353  0.0870 -0.1728 -0.2168
  893POPC   PO4 9961   6.610  16.608   2.380 -0.0142  0.2052  0.0519
  893POPC   GL1 9962   6.670  16.797   2.899 -0.1226  0.1077 -0.4075
  893POPC   GL2 9963   7.092  16.665   3.046  0.0182  0.1618  0.1054
  893POPC   C1A 9964   6.743  17.014   3.290  0.0737 -0.0177  0.0877
  893POPC   D2A 9965   7.030  16.982   3.628  0.2565  0.1780 -0.0698
  893POPC   C3A 9966   6.875  16.719   4.020  0.4469 -0.3386  0.0657
  893POPC   C4A 9967   6.928  16.492   4.328  0.0600 -0.2717  0.1318
  893POPC   C1B 9968   7.182  16.527   3.426  0.3500 -0.0376  0.3154
  893POPC   C2B 9969   7.081  16.369   3.815  0.2798  0.3168  0.0954
  893POPC   C3B 9970   6.703  16.215   3.841  0.0313 -0.0235 -0.0033
  893POPC   C4B 9971   6.447  15.915   3.952 -0.1395 -0.1930 -0.3893
  894POPC   NC3 9972  16.012  12.356   2.198  0.1029 -0.0953  0.1486
  894POPC   PO4 9973  15.755  12.326   2.560  0.2127  0.4910 -0.3307
  894POPC   GL1 9974  15.892  12.494   2.974  0.3854 -0.1878 -0.2168
  894POPC   GL2 9975  16.085  12.269   3.203  0.0857 -0.2706  0.3114
  894POPC   C1A 9976  15.852  12.660   3.339 -0.1002 -0.3673  0.0188
  894POPC   D2A 9977  15.953  12.907   3.656  0.0448  0.0886  0.2984
  894POPC   C3A 9978  16.031  12.752   4.133 -0.1288  0.3780  0.0677
  894POPC   C4A 9979  16.223  12.844   4.499  0.1290 -0.1761 -0.3617
  894POPC   C1B 9980  16.209  11.977   3.551  0.1133  0.1951  0.2316
  894POPC   C2B 9981  16.256  11.640   3.850  0.2712 -0.1130 -0.2300
  894POPC   C3B 9982  15.739  11.580   3.908  0.0403 -0.3302 -0.2794
  894POPC   C4B 9983  15.609  11.303   4.264 -0.0172 -0.0520 -0.0197
  895POPS   CNO 9984   0.715   9.857   2.080  0.1805  0.1286 -0.0412
  895POPS   PO4 9985   1.039   9.836   2.397 -0.0350  0.0224 -0.3248
  895POPS   GL1 9986   1.258   9.668   2.652  0.1805  0.3256 -0.1790
  895POPS   GL2 9987   1.244   9.399   2.829 -0.0889  0.2234  0.3185
  895POPS   C1A 9988   1.359   9.839   3.139 -0.0225  0.0377  0.2457
  895POPS   D2A 9989   1.345   9.870   3.561 -0.1407 -0.0135  0.1395
  895POPS   C3A 9990   1.570   9.640   3.938 -0.0961  0.4779 -0.0129
  895POPS   C4A 9991   1.929   9.763   4.199  0.1192  0.1319 -0.1469
  895POPS   C1B 9992   1.067   9.492   3.227  0.2991  0.1474  0.3600
  895POPS   C2B 9993   1.130   9.454   3.633 -0.1465 -0.2519 -0.1329
  895POPS   C3B 9994   1.012   9.672   3.935 -0.3002  0.2469 -0.0938
  895POPS   C4B 9995   1.311   9.918   4.238  0.0336 -0.2368 -0.0757
  896POPC   NC3 9996   6.261  15.982   2.296  0.3358 -0.0169  0.0084
  896POPC   PO4 9997   5.852  16.135   2.302 -0.1810 -0.2889 -0.0913
  896POPC   GL1 9998   5.936  16.162   2.711 -0.2024 -0.0226 -0.1619
  896POPC   GL2 9999   5.697  16.011   2.894  0.1450 -0.1644  0.1209
  896POPC   C1A10000   6.085  16.277   3.171  0.1172 -0.1463 -0.0254
  896POPC   D2A10001   6.259  16.733   3.270  0.1367  0.2280 -0.0387
  896POPC   C3A10002   6.099  17.032   3.450  0.1019 -0.2736 -0.1064
  896POPC   C4A10003   5.930  17.335   3.754 -0.1884  0.0553  0.3716
  896POPC   C1B10004   5.700  15.609   3.118 -0.1683 -0.0660  0.0327
  896POPC   C2B10005   5.684  15.448   3.464  0.2095  0.0259 -0.0870
  896POPC   C3B10006   5.595  15.136   3.803  0.2222 -0.1521 -0.2195
  896POPC   C4B10007   5.559  15.054   4.197 -0.2306 -0.0364  0.2415
  897POPS   CNO10008   0.679   8.363   2.294  0.1019  0.2549 -0.0600
  897POPS   PO410009   1.111   8.237   2.449 -0.0493  0.2608  0.0528
  897POPS   GL110010   0.892   8.027   2.785 -0.1400  0.2407  0.3765
  897POPS   GL210011   0.665   8.031   2.732  0.0041 -0.3266 -0.0754
  897POPS   C1A10012   1.155   7.894   3.170  0.0502  0.0683  0.1726
  897POPS   D2A10013   1.145   7.605   3.401  0.0220  0.1379 -0.0156
  897POPS   C3A10014   1.382   7.790   3.787  0.0092  0.0077  0.0158
  897POPS   C4A10015   1.445   7.708   4.161  0.0070  0.0671 -0.2138
  897POPS   C1B10016   0.430   8.226   3.089 -0.1107  0.1425 -0.1867
  897POPS   C2B10017   0.456   8.253   3.535 -0.3237 -0.4038 -0.0815
  897POPS   C3B10018   0.419   7.991   3.865  0.2859 -0.1201  0.3187
  897POPS   C4B10019   0.364   7.628   4.042  0.1519 -0.0946  0.1062
  898CHOL   ROH10020  14.642  12.723   2.914 -0.1722 -0.4751  0.0133
  898CHOL    R110021  14.676  12.856   3.162 -0.0829 -0.3783 -0.0495
  898CHOL    R210022  14.470  12.990   3.289 -0.0120 -0.2389 -0.0783
  898CHOL    R310023  14.538  12.829   3.498 -0.0460 -0.1742 -0.0169
  898CHOL    R410024  14.334  13.010   3.606 -0.0293 -0.1106 -0.0934
  898CHOL    R510025  14.533  12.974   3.688 -0.0394 -0.1069 -0.0678
  898CHOL    C110026  14.318  12.871   3.986 -0.0713  0.0248 -0.0445
  898CHOL    C210027  14.257  12.728   4.260 -0.2181  0.0173 -0.1205
  899POPE   NH310028   7.933   1.076   2.221  0.0649 -0.1954 -0.1491
  899POPE   PO410029   8.055   0.651   2.159 -0.2717 -0.0225 -0.0635
  899POPE   GL110030   7.988   0.669   2.561  0.5247  0.3005  0.1441
  899POPE   GL210031   8.309   0.547   2.768  0.0703 -0.2008 -0.0315
  899POPE   C1A10032   7.919   0.635   3.082 -0.2400  0.2275 -0.3955
  899POPE   D2A10033   8.035   0.458   3.535 -0.1697  0.1957 -0.1570
  899POPE   C3A10034   8.091   0.108   3.813 -0.2447 -0.2814  0.1188
  899POPE   C4A10035   7.886  -0.252   4.014 -0.2428  0.0824 -0.3185
  899POPE   C1B10036   8.339   0.251   3.191  0.1073  0.0929  0.3784
  899POPE   C2B10037   8.370  -0.065   3.436 -0.2273  0.2886  0.0564
  899POPE   C3B10038   8.392  -0.253   3.822 -0.0992  0.1541 -0.0023
  899POPE   C4B10039   8.330  -0.454   4.123  0.1067  0.0896  0.3313
  900CHOL   ROH10040   7.113  15.874   2.697 -0.2319  0.0842  0.2290
  900CHOL    R110041   7.109  15.949   2.969 -0.0765  0.0351  0.2457
  900CHOL    R210042   6.882  15.931   3.125 -0.0240  0.1335  0.3366
  900CHOL    R310043   7.044  15.786   3.288 -0.0374  0.0100  0.2414
  900CHOL    R410044   6.877  15.945   3.470  0.1973  0.1467  0.3402
  900CHOL    R510045   7.095  15.936   3.468  0.1902 -0.0241  0.2069
  900CHOL    C110046   7.027  15.817   3.825  0.3136  0.0383  0.2530
  900CHOL    C210047   7.233  15.621   4.161 -0.3522 -0.1300  0.1687
  901POPC   NC310048   1.362   5.461   1.853 -0.0894  0.2763 -0.2781
  901POPC   PO410049   1.161   5.677   2.249 -0.2407  0.0739  0.0537
  901POPC   GL110050   1.163   5.407   2.581 -0.1188 -0.0811 -0.5487
  901POPC   GL210051   0.849   5.256   2.563 -0.1469 -0.2383 -0.2267
  901POPC   C1A10052   1.064   5.580   3.021  0.0632  0.0031  0.1287
  901POPC   D2A10053   0.971   5.679   3.449  0.0243 -0.0835  0.4317
  901POPC   C3A10054   0.468   5.775   3.570 -0.0684  0.1396  0.0118
  901POPC   C4A10055   0.079   5.670   3.753 -0.1437 -0.0429 -0.0131
  901POPC   C1B10056   0.613   5.346   2.912  0.1943  0.0530  0.0266
  901POPC   C2B10057   0.546   5.347   3.333 -0.1015 -0.1134 -0.1005
  901POPC   C3B10058   0.353   5.168   3.711 -0.2571  0.1569  0.0282
  901POPC   C4B10059   0.307   5.166   4.097 -0.5241  0.3179 -0.0893
  902POSM   NC310060   1.580   3.649   2.165 -0.2152  0.2807  0.2193
  902POSM   PO410061   1.293   3.273   2.361 -0.0457 -0.3309 -0.3274
  902POSM   AM110062   1.042   3.464   2.654 -0.0742 -0.3764 -0.0166
  902POSM   AM210063   1.002   3.206   2.796  0.1660  0.0243 -0.2113
  902POSM   T1A10064   1.193   3.636   3.036  0.1747 -0.2086  0.0091
  902POSM   C2A10065   1.220   3.624   3.509  0.2815 -0.1301  0.0129
  902POSM   C3A10066   1.275   3.802   3.809 -0.1917  0.0844 -0.1569
  902POSM   C1B10067   1.075   2.845   2.936 -0.5024 -0.0549 -0.1709
  902POSM   D2B10068   1.311   2.457   2.889 -0.0734  0.2005  0.2726
  902POSM   C3B10069   1.222   2.179   3.255  0.0083  0.2712  0.2680
  902POSM   C4B10070   1.206   2.147   3.647  0.1694 -0.1118  0.3278
  903POPE   NH310071   2.710  13.206   2.309 -0.3649  0.0482 -0.1156
  903POPE   PO410072   2.405  12.903   2.082 -0.1613  0.0870 -0.2372
  903POPE   GL110073   2.315  12.708   2.424  0.2048  0.1075 -0.1012
  903POPE   GL210074   2.077  12.895   2.502  0.2952 -0.0340  0.2006
  903POPE   C1A10075   2.483  12.690   2.896 -0.1892  0.2704 -0.0393
  903POPE   D2A10076   2.706  12.566   3.335  0.0080  0.0062  0.1996
  903POPE   C3A10077   2.472  12.555   3.643 -0.0196 -0.1327 -0.0367
  903POPE   C4A10078   2.174  12.409   3.808 -0.0949  0.1236 -0.1243
  903POPE   C1B10079   2.034  12.922   2.962 -0.2315  0.2445  0.1630
  903POPE   C2B10080   2.242  12.844   3.324 -0.2117  0.4173 -0.0622
  903POPE   C3B10081   2.055  12.870   3.792  0.1212 -0.1835 -0.0334
  903POPE   C4B10082   1.820  12.602   4.204 -0.1485  0.1819  0.0679
  904CHOL   ROH10083  16.119   3.605   2.740  0.0865  0.2296  0.1320
  904CHOL    R110084  15.934   3.621   2.954  0.0998  0.1856  0.1487
  904CHOL    R210085  15.865   3.401   3.108  0.0230  0.1249  0.0385
  904CHOL    R310086  15.940   3.563   3.313  0.0971 -0.0086  0.1170
  904CHOL    R410087  15.768   3.362   3.437  0.0170  0.0128  0.0228
  904CHOL    R510088  15.746   3.577   3.452  0.1116  0.0110  0.1294
  904CHOL    C110089  15.781   3.491   3.821  0.0832 -0.1777  0.0874
  904CHOL    C210090  15.959   3.583   4.137 -0.0162 -0.0253 -0.2237
  905POPS   CNO10091  16.551  10.836   2.281 -0.2284  0.0164 -0.0329
  905POPS   PO410092  16.391  11.141   2.597 -0.2654  0.1134  0.2050
  905POPS   GL110093  16.357  11.139   2.989 -0.0359 -0.0514  0.1873
  905POPS   GL210094  16.615  11.337   3.136 -0.1387  0.1255 -0.1190
  905POPS   C1A10095  16.332  10.824   3.282 -0.0974  0.4414  0.2225
  905POPS   D2A10096  16.403  10.326   3.470 -0.2511  0.1179 -0.3871
  905POPS   C3A10097  16.488  10.368   3.908 -0.2846 -0.1995 -0.2704
  905POPS   C4A10098  16.917  10.361   3.983 -0.4098 -0.0174  0.1158
  905POPS   C1B10099  16.729  11.260   3.531 -0.0597  0.0547 -0.0019
  905POPS   C2B10100  16.731  11.381   3.947 -0.0596  0.1400 -0.2533
  905POPS   C3B10101  16.783  11.744   4.191 -0.1323 -0.4857  0.1864
  905POPS   C4B10102  16.459  11.996   4.521 -0.0192 -0.2190 -0.3238
  906CHOL   ROH10103   0.737   9.906   2.760  0.0659 -0.1968 -0.0382
  906CHOL    R110104   0.809   9.882   3.032  0.1023 -0.0783 -0.0376
  906CHOL    R210105   0.928  10.088   3.173 -0.1187  0.0724 -0.0748
  906CHOL    R310106   0.721  10.048   3.344 -0.0675 -0.1293 -0.0563
  906CHOL    R410107   0.947  10.117   3.517 -0.1302  0.1842 -0.0826
  906CHOL    R510108   0.821   9.941   3.534  0.0740  0.0327 -0.0327
  906CHOL    C110109   0.764  10.097   3.878 -0.0888  0.0601 -0.0697
  906CHOL    C210110   0.852  10.134   4.221 -0.1231  0.4007 -0.1620
  907POPC   NC310111   9.382   0.367   2.126  0.0647  0.3106  0.0374
  907POPC   PO410112   9.730   0.659   2.307  0.0661  0.2243 -0.3365
  907POPC   GL110113   9.615   0.510   2.704  0.0258  0.2292 -0.2209
  907POPC   GL210114   9.328   0.588   2.910  0.0466  0.1416  0.1242
  907POPC   C1A10115   9.642   0.288   3.054 -0.3617  0.0830 -0.0558
  907POPC   D2A10116   9.754   0.279   3.413  0.1344  0.0133  0.0411
  907POPC   C3A10117   9.591   0.524   3.759  0.0058  0.1489  0.2451
  907POPC   C4A10118   9.604   0.725   4.051 -0.0278  0.0351 -0.3140
  907POPC   C1B10119   9.643   0.762   3.287 -0.0956 -0.1852  0.1486
  907POPC   C2B10120   9.956   0.777   3.442  0.2194 -0.0628 -0.2688
  907POPC   C3B10121  10.136   0.853   3.758  0.0422 -0.1885  0.0670
  907POPC   C4B10122  10.336   1.050   4.106  0.2442 -0.1473 -0.3118
  908POSM   NC310123   1.339   2.385   2.375  0.1815  0.0067 -0.0228
  908POSM   PO410124   1.597   2.045   2.262 -0.0383  0.2098 -0.0818
  908POSM   AM110125   1.465   1.953   2.564  0.4680  0.3907  0.1643
  908POSM   AM210126   1.141   1.965   2.617  0.1606  0.0269  0.2327
  908POSM   T1A10127   1.420   1.819   2.960 -0.0909  0.1065 -0.1500
  908POSM   C2A10128   1.404   1.704   3.401 -0.0426  0.0604 -0.0701
  908POSM   C3A10129   1.406   1.761   3.889  0.3187 -0.0929 -0.1157
  908POSM   C1B10130   0.941   1.983   2.967  0.1879  0.1095  0.1070
  908POSM   D2B10131   0.637   2.021   3.289  0.0618  0.3671 -0.0725
  908POSM   C3B10132   0.676   2.265   3.645 -0.1440  0.2222  0.1010
  908POSM   C4B10133   0.856   2.098   4.063 -0.0032  0.0570 -0.2469
  909POPE   NH310134  14.262   3.325   2.853  0.1118 -0.4512 -0.1260
  909POPE   PO410135  14.332   2.985   2.794  0.2247  0.0572 -0.3531
  909POPE   GL110136  14.084   2.966   3.179 -0.0127  0.0651  0.2107
  909POPE   GL210137  13.795   2.983   2.876 -0.0801  0.3176  0.0684
  909POPE   C1A10138  14.028   2.849   3.640  0.0484 -0.1323 -0.0434
  909POPE   D2A10139  14.125   2.748   4.015 -0.0251  0.1601  0.0538
  909POPE   C3A10140  14.328   2.928   4.336  0.0122  0.1199 -0.1177
  909POPE   C4A10141  14.571   2.771   4.559 -0.1614 -0.1168  0.1488
  909POPE   C1B10142  13.616   2.698   3.165  0.2426  0.1349  0.1786
  909POPE   C2B10143  13.527   2.641   3.610  0.0005  0.1217  0.0674
  909POPE   C3B10144  13.291   2.669   4.011  0.1727 -0.0310  0.1029
  909POPE   C4B10145  13.003   2.809   4.306 -0.0095 -0.0812  0.1310
  910CHOL   ROH10146  13.967  16.232   2.853 -0.0654 -0.0049 -0.1974
  910CHOL    R110147  13.796  16.341   3.051  0.0165 -0.0012 -0.1283
  910CHOL    R210148  13.694  16.189   3.258  0.0219 -0.0207 -0.1429
  910CHOL    R310149  13.803  16.385   3.412  0.1177 -0.0926 -0.1175
  910CHOL    R410150  13.623  16.239   3.592 -0.1237  0.0981 -0.1899
  910CHOL    R510151  13.624  16.454   3.555  0.0950  0.0963 -0.2297
  910CHOL    C110152  13.685  16.452   3.932 -0.1185  0.0998 -0.1935
  910CHOL    C210153  13.769  16.445   4.363 -0.2201  0.0197 -0.1951
  911POPC   NC310154  15.361   4.528   2.305 -0.2925 -0.1018  0.2217
  911POPC   PO410155  15.651   4.884   2.395  0.3397  0.1068  0.3034
  911POPC   GL110156  15.765   4.825   2.759 -0.2258 -0.1452 -0.2056
  911POPC   GL210157  16.087   4.794   2.724  0.0574  0.1303  0.0271
  911POPC   C1A10158  15.705   4.759   3.221 -0.1976 -0.1846 -0.0106
  911POPC   D2A10159  15.819   4.588   3.598 -0.0828  0.3168 -0.2838
  911POPC   C3A10160  15.545   4.501   3.980  0.3248 -0.0106  0.1947
  911POPC   C4A10161  15.466   4.664   4.382  0.1342  0.0155 -0.2541
  911POPC   C1B10162  16.139   4.541   3.096  0.0534  0.0812  0.0675
  911POPC   C2B10163  16.264   4.476   3.505 -0.1223 -0.0536  0.1689
  911POPC   C3B10164  16.233   4.712   3.884 -0.0471  0.2101 -0.0004
  911POPC   C4B10165  16.509   4.857   4.120 -0.1097 -0.0113 -0.0269
  912POPC   NC310166   6.384  15.712   1.887 -0.1348  0.1191 -0.0706
  912POPC   PO410167   6.383  15.497   2.253 -0.0788  0.3032 -0.0590
  912POPC   GL110168   6.562  15.383   2.655  0.0116  0.0351  0.0616
  912POPC   GL210169   6.423  15.154   2.739  0.0627  0.0071 -0.0862
  912POPC   C1A10170   6.652  15.428   3.081  0.0768 -0.1892 -0.3223
  912POPC   D2A10171   6.626  15.550   3.467  0.0806 -0.0357  0.1743
  912POPC   C3A10172   6.580  15.490   3.873 -0.0474  0.3143 -0.0423
  912POPC   C4A10173   6.748  15.545   4.246 -0.0791 -0.1608  0.3502
  912POPC   C1B10174   6.192  15.303   3.117  0.3842  0.0074 -0.0393
  912POPC   C2B10175   6.170  15.425   3.557  0.3639  0.2311 -0.1819
  912POPC   C3B10176   6.093  15.338   4.051 -0.0631 -0.2071 -0.1008
  912POPC   C4B10177   5.727  15.563   4.221  0.2649  0.5315  0.1258
  913POPS   CNO10178   0.811   6.227   2.234 -0.1881 -0.3088 -0.1296
  913POPS   PO410179   0.405   6.121   2.252  0.2659 -0.3025  0.2114
  913POPS   GL110180   0.491   6.179   2.636 -0.0269 -0.4067 -0.0704
  913POPS   GL210181   0.617   6.428   2.701  0.0976  0.0816  0.5735
  913POPS   C1A10182   0.695   6.134   3.160 -0.1198 -0.0762  0.1731
  913POPS   D2A10183   0.830   6.279   3.548  0.1515 -0.3889 -0.0230
  913POPS   C3A10184   0.878   6.039   3.935 -0.2770 -0.0212  0.0153
  913POPS   C4A10185   1.052   5.972   4.317 -0.0479  0.2487  0.1093
  913POPS   C1B10186   0.405   6.812   2.869  0.0172 -0.0227  0.0794
  913POPS   C2B10187   0.453   7.160   3.147 -0.1414  0.1269  0.4035
  913POPS   C3B10188   0.474   7.206   3.613  0.0101  0.1834 -0.1933
  913POPS   C4B10189   0.167   7.134   3.906 -0.0326  0.0151  0.1480
  914CHOL   ROH10190  12.398   0.380   2.745  0.2035 -0.1011 -0.0012
  914CHOL    R110191  12.198   0.426   2.941  0.1761 -0.1098 -0.0260
  914CHOL    R210192  12.232   0.359   3.207  0.2228  0.0878  0.0211
  914CHOL    R310193  12.168   0.619   3.247  0.0497  0.0656 -0.1516
  914CHOL    R410194  12.131   0.492   3.509 -0.0149  0.2001 -0.1065
  914CHOL    R510195  11.984   0.612   3.401 -0.0219  0.0496 -0.2443
  914CHOL    C110196  12.011   0.815   3.723 -0.3158  0.2448 -0.3428
  914CHOL    C210197  11.784   0.887   4.032 -0.0379  0.0774  0.1346
  915POPS   CNO10198  13.099  15.884   2.596  0.0919  0.3595 -0.0711
  915POPS   PO410199  13.448  16.051   2.401  0.0813  0.0841  0.2084
  915POPS   GL110200  13.417  16.073   2.886 -0.1949 -0.2202  0.1862
  915POPS   GL210201  13.424  15.703   2.958 -0.1314  0.2889  0.1527
  915POPS   C1A10202  12.988  15.914   3.063 -0.0934  0.0719  0.1021
  915POPS   D2A10203  12.971  15.957   3.534 -0.1623 -0.1334 -0.1127
  915POPS   C3A10204  12.969  15.624   3.678 -0.2412 -0.1675 -0.4011
  915POPS   C4A10205  12.806  15.342   3.721 -0.0683  0.0857 -0.0777
  915POPS   C1B10206  13.389  15.764   3.346 -0.0266  0.1991 -0.0484
  915POPS   C2B10207  13.501  15.600   3.687 -0.0492  0.0915  0.0790
  915POPS   C3B10208  13.803  15.345   3.959 -0.1868 -0.0481 -0.0216
  915POPS   C4B10209  13.642  14.942   4.176 -0.2932 -0.2953 -0.1773
  916POPS   CNO10210   0.082  11.944   2.501  0.1848  0.0168  0.0608
  916POPS   PO410211   0.229  11.504   2.640 -0.4373  0.0913  0.2852
  916POPS   GL110212   0.420  11.673   2.990  0.0628  0.2022 -0.0810
  916POPS   GL210213   0.477  12.028   2.950 -0.1683 -0.1618 -0.1472
  916POPS   C1A10214   0.585  11.473   3.374  0.1616 -0.0536  0.0834
  916POPS   D2A10215   0.526  11.631   3.770  0.0991 -0.1626  0.0299
  916POPS   C3A10216   0.597  11.476   4.154  0.0571 -0.3529 -0.3202
  916POPS   C4A10217   0.361  11.232   4.436 -0.2936  0.1291  0.1590
  916POPS   C1B10218   0.480  11.993   3.371  0.2240 -0.2666 -0.2434
  916POPS   C2B10219   0.544  12.205   3.801 -0.2395 -0.0841 -0.1918
  916POPS   C3B10220   0.690  11.966   4.180  0.2276  0.2458 -0.3454
  916POPS   C4B10221   0.995  11.845   4.399  0.1515  0.1090  0.1419
  917CHOL   ROH10222  12.361   0.846   2.907 -0.0267 -0.0057  0.0588
  917CHOL    R110223  12.114   0.981   2.940 -0.0030  0.0226  0.1247
  917CHOL    R210224  12.007   1.036   3.189  0.1317  0.1478  0.1558
  917CHOL    R310225  12.001   1.291   3.093  0.0944  0.1025  0.0358
  917CHOL    R410226  11.972   1.320   3.384 -0.0370  0.2278  0.0118
  917CHOL    R510227  11.840   1.402   3.231  0.0011  0.1174 -0.0826
  917CHOL    C110228  11.945   1.723   3.408 -0.1703  0.2319 -0.1847
  917CHOL    C210229  11.722   1.973   3.629 -0.1098  0.0649  0.0620
  918POPE   NH310230   4.972   0.069   2.518 -0.2333  0.1631  0.0236
  918POPE   PO410231   4.878  -0.359   2.502  0.0848 -0.2867 -0.0107
  918POPE   GL110232   4.567  -0.183   2.811  0.0131  0.1556  0.1572
  918POPE   GL210233   4.239  -0.188   2.683  0.0487  0.2751 -0.0289
  918POPE   C1A10234   4.499  -0.113   3.154 -0.1063  0.0948 -0.1936
  918POPE   D2A10235   4.401   0.037   3.500  0.0703 -0.3602 -0.1974
  918POPE   C3A10236   4.759  -0.070   3.754 -0.2436  0.0985 -0.0622
  918POPE   C4A10237   5.014  -0.034   4.138  0.1032  0.0446 -0.0813
  918POPE   C1B10238   4.014  -0.215   3.181 -0.0767  0.0958  0.1494
  918POPE   C2B10239   3.921  -0.383   3.459 -0.2155  0.1436 -0.3110
  918POPE   C3B10240   3.914  -0.281   3.879  0.1623 -0.0106  0.0274
  918POPE   C4B10241   3.840  -0.482   4.319 -0.1860  0.1880  0.0358
  919POSM   NC310242   0.942  12.936   2.134  0.0533 -0.0658  0.0130
  919POSM   PO410243   1.291  13.235   2.110 -0.1814 -0.1671 -0.1117
  919POSM   AM110244   1.433  13.036   2.435 -0.0898  0.0477 -0.0226
  919POSM   AM210245   1.664  13.181   2.530 -0.0849 -0.0904 -0.1076
  919POSM   T1A10246   1.507  13.060   2.977 -0.0493  0.1570  0.1050
  919POSM   C2A10247   1.716  13.192   3.349  0.0955 -0.0598 -0.0261
  919POSM   C3A10248   1.794  13.305   3.780  0.1224 -0.0922 -0.1010
  919POSM   C1B10249   1.931  13.396   2.799  0.5006  0.2074 -0.2601
  919POSM   D2B10250   2.007  13.836   3.113  0.0944  0.0752  0.3574
  919POSM   C3B10251   2.489  13.874   3.251  0.1796 -0.0449  0.1441
  919POSM   C4B10252   2.996  13.882   3.201 -0.0160 -0.1628  0.0419
  920POPE   NH310253  13.402  15.561   2.482 -0.2947  0.0715  0.2178
  920POPE   PO410254  13.619  15.090   2.411  0.3802  0.1248  0.3460
  920POPE   GL110255  13.462  15.149   2.864  0.2837 -0.1021  0.1006
  920POPE   GL210256  13.184  14.960   2.944  0.2535  0.1173  0.1025
  920POPE   C1A10257  13.564  15.203   3.257 -0.1477  0.1415  0.0400
  920POPE   D2A10258  13.585  15.076   3.585 -0.4022 -0.1232 -0.0297
  920POPE   C3A10259  13.296  15.196   3.962 -0.1715 -0.1491  0.0022
  920POPE   C4A10260  13.032  15.452   4.212 -0.0870  0.0221 -0.0095
  920POPE   C1B10261  12.798  14.745   3.119  0.1338 -0.1558  0.1351
  920POPE   C2B10262  12.718  14.520   3.400 -0.1483  0.1802  0.0654
  920POPE   C3B10263  12.504  14.427   3.705  0.1864 -0.0144  0.2634
  920POPE   C4B10264  12.252  14.519   4.137 -0.0279 -0.1845  0.3665
  921POPS   CNO10265   0.979  10.655   2.194 -0.1700  0.3765 -0.2492
  921POPS   PO410266   0.821  10.827   2.529 -0.2302  0.0172  0.0103
  921POPS   GL110267   0.804  10.968   2.906 -0.1465 -0.0659 -0.0351
  921POPS   GL210268   0.548  11.176   2.953 -0.0818 -0.1431 -0.2602
  921POPS   C1A10269   0.977  11.181   3.287 -0.1576  0.1770 -0.1305
  921POPS   D2A10270   0.812  11.121   3.731 -0.2402 -0.2844  0.0673
  921POPS   C3A10271   0.421  10.966   3.797 -0.1534  0.0311 -0.1384
  921POPS   C4A10272   0.154  10.641   3.554  0.1561  0.1647 -0.2059
  921POPS   C1B10273   0.564  10.941   3.330 -0.0185  0.1060  0.1309
  921POPS   C2B10274   0.680  10.537   3.668 -0.0259  0.6255 -0.1481
  921POPS   C3B10275   0.774  10.585   4.045 -0.1177  0.0268 -0.1313
  921POPS   C4B10276   0.704  10.966   4.226  0.2625 -0.2116 -0.1545
  922POPS   CNO10277   4.109   0.755   2.012  0.1213  0.1475 -0.0420
  922POPS   PO410278   3.969   0.442   2.295 -0.0524 -0.0585 -0.1152
  922POPS   GL110279   3.911   0.528   2.697 -0.4352 -0.2188 -0.0568
  922POPS   GL210280   3.961   0.234   2.797 -0.0669  0.3366  0.1612
  922POPS   C1A10281   3.764   0.710   3.061  0.3227 -0.0677 -0.1816
  922POPS   D2A10282   3.505   0.483   3.354  0.2448 -0.0528 -0.3929
  922POPS   C3A10283   3.536   0.497   3.786  0.0033  0.3764  0.1113
  922POPS   C4A10284   3.554   0.423   4.200 -0.1947  0.2371  0.0282
  922POPS   C1B10285   3.983   0.269   3.221 -0.1684  0.2871  0.0806
  922POPS   C2B10286   3.975   0.625   3.494 -0.2549  0.0256 -0.2752
  922POPS   C3B10287   3.679   0.920   3.518  0.1403 -0.3616 -0.2205
  922POPS   C4B10288   3.537   1.011   3.990  0.0119 -0.2559  0.0334
  923POPS   CNO10289   5.135  15.946   2.207  0.1454 -0.0286 -0.1872
  923POPS   PO410290   5.349  16.241   2.522  0.2030  0.0274  0.0996
  923POPS   GL110291   5.341  16.356   2.914 -0.0514  0.1264  0.1760
  923POPS   GL210292   5.050  16.392   2.944  0.0012  0.0085  0.1031
  923POPS   C1A10293   5.385  16.539   3.266 -0.4261 -0.0169  0.0712
  923POPS   D2A10294   5.329  16.445   3.721  0.2421  0.0323 -0.1481
  923POPS   C3A10295   5.677  16.250   3.933 -0.2106  0.1992 -0.0655
  923POPS   C4A10296   5.985  16.154   4.167 -0.0163  0.0728 -0.2641
  923POPS   C1B10297   4.961  16.285   3.358  0.1583  0.1809 -0.2256
  923POPS   C2B10298   5.041  16.046   3.632  0.4028  0.1365  0.1125
  923POPS   C3B10299   4.807  16.001   4.104  0.1011 -0.0105  0.0860
  923POPS   C4B10300   4.801  15.727   4.508 -0.0145 -0.3470 -0.2930
  924POPS   CNO10301  14.522  12.708   2.380  0.0184  0.0105 -0.0533
  924POPS   PO410302  14.896  12.868   2.511 -0.1711  0.1910 -0.0754
  924POPS   GL110303  15.127  13.020   2.915 -0.0397  0.5690 -0.0564
  924POPS   GL210304  15.213  13.322   2.956 -0.2124  0.1849  0.1090
  924POPS   C1A10305  15.176  12.886   3.292  0.1302  0.3521  0.0673
  924POPS   D2A10306  15.073  12.966   3.665 -0.2686  0.2176 -0.0930
  924POPS   C3A10307  15.330  12.899   4.098  0.1517 -0.0338  0.0371
  924POPS   C4A10308  15.610  12.927   4.436  0.0497 -0.1669 -0.0661
  924POPS   C1B10309  15.211  13.427   3.331 -0.0124  0.1752  0.0997
  924POPS   C2B10310  15.257  13.564   3.671  0.0340 -0.2450 -0.1355
  924POPS   C3B10311  15.332  13.580   4.077  0.2356  0.1815 -0.0876
  924POPS   C4B10312  15.438  13.465   4.476 -0.0332  0.1542 -0.1203
  925POSM   NC310313   0.445  12.275   2.398 -0.1414  0.0202 -0.1878
  925POSM   PO410314   0.197  12.375   2.732  0.1613 -0.1842  0.0815
  925POSM   AM110315   0.007  12.283   3.167 -0.1776  0.0926  0.0066
  925POSM   AM210316  -0.026  11.991   3.010  0.0440 -0.1036 -0.0144
  925POSM   T1A10317  -0.005  12.470   3.568  0.2559  0.0778  0.0476
  925POSM   C2A10318  -0.329  12.497   3.798  0.1514 -0.2755  0.0976
  925POSM   C3A10319  -0.760  12.439   3.788  0.1785  0.1237  0.3350
  925POSM   C1B10320   0.037  11.801   3.395 -0.3478  0.1011 -0.1433
  925POSM   D2B10321   0.075  12.036   3.793 -0.1236  0.1038 -0.3501
  925POSM   C3B10322  -0.220  12.082   4.055  0.0654  0.2742 -0.2690
  925POSM   C4B10323  -0.690  12.031   4.082  0.0307  0.1577 -0.2387
  926POPC   NC310324  10.364   2.113   2.133 -0.2112  0.3857 -0.3476
  926POPC   PO410325  10.713   2.238   2.327  0.2591 -0.2216  0.1719
  926POPC   GL110326  11.074   2.335   2.544  0.1036 -0.2122  0.0032
  926POPC   GL210327  11.194   2.588   2.749  0.1591 -0.3713  0.0712
  926POPC   C1A10328  11.193   2.090   2.965 -0.1873  0.0451 -0.1138
  926POPC   D2A10329  11.506   1.913   3.217 -0.0404  0.0698  0.1002
  926POPC   C3A10330  11.395   1.590   3.490  0.0713  0.1098  0.0410
  926POPC   C4A10331  11.191   1.304   3.860 -0.0941  0.0513 -0.2550
  926POPC   C1B10332  11.095   2.635   3.116 -0.0999  0.0452  0.2338
  926POPC   C2B10333  11.177   2.610   3.562  0.2076  0.1185 -0.0335
  926POPC   C3B10334  11.084   2.386   3.939 -0.0543  0.1277 -0.1937
  926POPC   C4B10335  11.249   1.843   3.881 -0.1072  0.1894 -0.0160
  927CHOL   ROH10336   3.583  14.963   2.783  0.0172 -0.2338 -0.0439
  927CHOL    R110337   3.751  15.012   3.006 -0.0074 -0.0123 -0.0713
  927CHOL    R210338   3.730  15.239   3.162 -0.2899 -0.0391 -0.0591
  927CHOL    R310339   3.708  15.059   3.364 -0.0144 -0.0813 -0.0631
  927CHOL    R410340   3.778  15.311   3.496 -0.2882 -0.0054 -0.0669
  927CHOL    R510341   3.881  15.120   3.517 -0.0481  0.1196 -0.1060
  927CHOL    C110342   3.786  15.183   3.881 -0.0285 -0.0253 -0.0752
  927CHOL    C210343   3.897  14.879   4.205  0.1187  0.1084 -0.3502
  928POPE   NH310344   0.526   2.605   2.015  0.2158  0.1422  0.2117
  928POPE   PO410345   0.915   2.439   2.133 -0.1852 -0.1002 -0.1084
  928POPE   GL110346   0.657   2.291   2.454  0.0827 -0.0254  0.0189
  928POPE   GL210347   0.711   2.480   2.687 -0.1769 -0.0086  0.3080
  928POPE   C1A10348   0.391   2.127   2.824 -0.0417 -0.1705 -0.1472
  928POPE   D2A10349   0.390   1.687   2.849  0.2993 -0.0723 -0.2714
  928POPE   C3A10350   0.415   1.411   3.149 -0.0293 -0.3690 -0.0088
  928POPE   C4A10351   0.399   1.047   3.491 -0.0281 -0.0292  0.0660
  928POPE   C1B10352   0.774   2.454   3.085  0.0440 -0.0843 -0.4065
  928POPE   C2B10353   1.058   2.589   3.437 -0.1531 -0.0522 -0.0510
  928POPE   C3B10354   1.016   2.535   3.854 -0.3711 -0.0799 -0.4921
  928POPE   C4B10355   0.610   2.521   4.069 -0.0501  0.0741 -0.2770
  929POPC   NC310356   0.713   4.719   2.456 -0.2442  0.4251  0.0411
  929POPC   PO410357   0.885   4.352   2.257 -0.2540  0.1301 -0.2014
  929POPC   GL110358   0.999   4.286   2.641 -0.0566  0.3855 -0.1018
  929POPC   GL210359   0.823   4.031   2.815  0.0923  0.1309  0.1607
  929POPC   C1A10360   0.890   4.426   3.062  0.1989 -0.3269  0.3473
  929POPC   D2A10361   0.546   4.315   3.229 -0.0787 -0.1507 -0.2065
  929POPC   C3A10362   0.387   3.952   3.032 -0.0846  0.1527  0.1668
  929POPC   C4A10363   0.048   3.670   3.039 -0.0118  0.0104 -0.1060
  929POPC   C1B10364   0.847   3.911   3.222  0.2475  0.0572  0.0947
  929POPC   C2B10365   0.864   4.069   3.654 -0.1111  0.2927  0.3195
  929POPC   C3B10366   0.814   4.536   3.612  0.0138  0.2084  0.0300
  929POPC   C4B10367   0.659   4.758   3.826  0.0280  0.1230  0.0176
  930POSM   NC310368   0.144   5.149   2.061 -0.1276  0.2662 -0.0855
  930POSM   PO410369   0.482   5.201   2.238 -0.2108 -0.0475  0.1837
  930POSM   AM110370   0.330   5.012   2.574 -0.1286  0.1676  0.1279
  930POSM   AM210371   0.094   4.983   2.576  0.3202  0.1556 -0.0099
  930POSM   T1A10372   0.491   4.809   2.988 -0.1849 -0.3576  0.0246
  930POSM   C2A10373   0.443   4.825   3.362  0.0319  0.2671  0.0188
  930POSM   C3A10374   0.129   4.687   3.694  0.0335 -0.1096  0.0222
  930POSM   C1B10375   0.006   4.864   2.981 -0.2086  0.0448  0.1280
  930POSM   D2B10376  -0.148   4.932   3.418  0.3862  0.0482 -0.1718
  930POSM   C3B10377  -0.096   5.176   3.716  0.2711  0.0194 -0.2112
  930POSM   C4B10378  -0.208   5.351   4.099 -0.0466  0.0109 -0.1348
  931POSM   NC310379  12.567   0.735   2.412 -0.2653  0.1050  0.1773
  931POSM   PO410380  12.826   1.078   2.183 -0.0143 -0.3308  0.1484
  931POSM   AM110381  12.438   1.206   2.556 -0.3837 -0.1521 -0.0550
  931POSM   AM210382  12.574   1.358   2.758 -0.0861  0.1874 -0.0939
  931POSM   T1A10383  11.973   1.353   2.557 -0.0036  0.1759  0.0991
  931POSM   C2A10384  11.615   1.525   2.698 -0.1193  0.0525  0.1928
  931POSM   C3A10385  11.269   1.553   2.854  0.2331  0.0619  0.0258
  931POSM   C1B10386  12.541   1.225   3.129  0.1986 -0.0789  0.0552
  931POSM   D2B10387  12.410   1.002   3.487  0.0184 -0.0141 -0.0532
  931POSM   C3B10388  12.329   1.201   3.919 -0.1533  0.0828  0.2462
  931POSM   C4B10389  12.070   1.271   4.254 -0.2187 -0.0256  0.2730
  932CHOL   ROH10390   2.862   0.385   3.044  0.1536  0.1065 -0.0321
  932CHOL    R110391   2.933   0.330   3.313  0.1953  0.1124 -0.0420
  932CHOL    R210392   2.902   0.080   3.427  0.0171  0.1685  0.0278
  932CHOL    R310393   3.166   0.110   3.485  0.0640 -0.0461 -0.0633
  932CHOL    R410394   3.062  -0.060   3.699 -0.0273  0.1101  0.0246
  932CHOL    R510395   3.173   0.125   3.724  0.1472  0.0235 -0.0672
  932CHOL    C110396   3.403  -0.114   3.912 -0.0090 -0.1253 -0.0629
  932CHOL    C210397   3.351  -0.245   4.273  0.0250 -0.4719 -0.0942
  933POPS   CNO10398  15.971   3.427   2.275  0.0208 -0.0857 -0.0755
  933POPS   PO410399  15.875   3.142   2.432  0.1050  0.1923 -0.0341
  933POPS   GL110400  15.848   2.912   2.859 -0.0533 -0.2297  0.3203
  933POPS   GL210401  15.599   3.000   3.015 -0.1516 -0.0118 -0.0215
  933POPS   C1A10402  16.040   2.932   3.322 -0.1968 -0.1093  0.0704
  933POPS   D2A10403  16.075   3.064   3.694  0.0490  0.3880  0.1830
  933POPS   C3A10404  16.228   3.319   3.777  0.1163  0.1009  0.2228
  933POPS   C4A10405  16.446   3.387   4.269  0.2090 -0.0823  0.1572
  933POPS   C1B10406  15.564   2.968   3.478 -0.3078  0.4012 -0.1156
  933POPS   C2B10407  15.659   2.799   3.906  0.1430 -0.0059 -0.0197
  933POPS   C3B10408  15.914   2.600   4.265  0.1783  0.1999 -0.3620
  933POPS   C4B10409  16.223   2.390   4.458 -0.1938 -0.0435  0.2151
  934POSM   NC310410   4.120  14.997   2.191 -0.1007  0.1720 -0.1181
  934POSM   PO410411   4.113  15.422   2.252 -0.1115 -0.2165  0.4946
  934POSM   AM110412   4.339  15.555   2.625  0.0980  0.0023 -0.1164
  934POSM   AM210413   4.522  15.359   2.644  0.0760  0.0198  0.2941
  934POSM   T1A10414   4.203  15.549   2.977  0.0000 -0.2618  0.0019
  934POSM   C2A10415   4.261  15.342   3.299  0.0117 -0.3159 -0.0618
  934POSM   C3A10416   4.742  15.153   3.513  0.1299 -0.1289  0.0428
  934POSM   C1B10417   4.696  15.464   3.027 -0.0521  0.0304  0.0801
  934POSM   D2B10418   4.772  15.665   3.333  0.0565  0.0592 -0.3238
  934POSM   C3B10419   4.657  15.570   3.758  0.2320 -0.2435 -0.0763
  934POSM   C4B10420   4.223  15.390   3.787 -0.1581 -0.1100 -0.1396
  935POPC   NC310421   2.429  15.210   2.223  0.1663  0.1619  0.0784
  935POPC   PO410422   2.790  15.101   2.443  0.1773 -0.1079  0.1623
  935POPC   GL110423   2.806  14.839   2.772 -0.2089  0.1611  0.0215
  935POPC   GL210424   3.044  14.901   2.896 -0.0877  0.3349 -0.2746
  935POPC   C1A10425   2.563  14.661   3.149  0.3099  0.2761  0.4428
  935POPC   D2A10426   2.502  14.410   3.512 -0.0322 -0.0754  0.1558
  935POPC   C3A10427   2.603  14.473   3.906 -0.0269 -0.1389 -0.2251
  935POPC   C4A10428   2.715  14.485   4.299  0.0938  0.1350  0.0675
  935POPC   C1B10429   3.185  15.151   3.200 -0.3773 -0.0114  0.0284
  935POPC   C2B10430   3.267  15.137   3.496  0.1775  0.1901  0.0026
  935POPC   C3B10431   3.326  15.010   3.902  0.0181 -0.5009  0.2120
  935POPC   C4B10432   3.059  14.858   4.155 -0.2642 -0.0063 -0.1457
  936POSM   NC310433  10.945   1.806   1.972 -0.2523  0.0761  0.2533
  936POSM   PO410434  11.368   1.705   2.169  0.1616  0.1946  0.0419
  936POSM   AM110435  11.351   1.347   2.293 -0.0494  0.1454 -0.2573
  936POSM   AM210436  11.598   1.123   2.234  0.0656 -0.3647  0.0339
  936POSM   T1A10437  11.155   1.121   2.726  0.1449  0.3800  0.1885
  936POSM   C2A10438  10.870   1.152   2.855  0.1218 -0.0439 -0.1781
  936POSM   C3A10439  10.425   1.087   2.787 -0.3183 -0.0016 -0.0122
  936POSM   C1B10440  11.631   1.013   2.613  0.3101  0.2397 -0.1831
  936POSM   D2B10441  11.524   1.070   3.046  0.1757 -0.2118  0.1538
  936POSM   C3B10442  11.156   1.183   3.370 -0.0246  0.2658  0.0026
  936POSM   C4B10443  10.699   1.349   3.348 -0.0416  0.1799 -0.1761
  937POPC   NC310444  15.978   4.477   2.379  0.0328  0.2194  0.2194
  937POPC   PO410445  15.587   4.357   2.714 -0.0195 -0.3790  0.0905
  937POPC   GL110446  15.580   4.315   3.043 -0.0599 -0.0732 -0.0521
  937POPC   GL210447  15.740   4.056   3.143 -0.1894 -0.1838  0.3262
  937POPC   C1A10448  15.400   4.305   3.422 -0.1617 -0.1444  0.1277
  937POPC   D2A10449  15.173   4.268   3.788 -0.1354 -0.0477  0.1084
  937POPC   C3A10450  14.949   4.516   4.173 -0.2337  0.1993  0.3410
  937POPC   C4A10451  14.686   4.256   4.489 -0.0561  0.0608  0.1081
  937POPC   C1B10452  15.842   4.037   3.502  0.1177 -0.0618 -0.3110
  937POPC   C2B10453  16.176   4.051   3.802  0.3157 -0.1172 -0.2311
  937POPC   C3B10454  16.441   4.301   4.018  0.1865 -0.2775 -0.0403
  937POPC   C4B10455  16.876   4.471   4.224 -0.1510 -0.0470  0.2399
  938POSM   NC310456  13.298   2.343   2.200 -0.0352  0.1291 -0.1284
  938POSM   PO410457  13.005   2.321   2.565  0.2077  0.0799 -0.0469
  938POSM   AM110458  13.120   2.179   2.892  0.2553 -0.0004  0.2200
  938POSM   AM210459  13.380   2.019   2.967 -0.0035  0.3037  0.0542
  938POSM   T1A10460  13.126   2.461   3.261 -0.1403  0.1428 -0.2195
  938POSM   C2A10461  13.026   2.400   3.703  0.0112  0.1432  0.0514
  938POSM   C3A10462  12.988   2.188   4.117  0.1354  0.2451  0.2486
  938POSM   C1B10463  13.599   2.197   3.436 -0.4023 -0.2035  0.2537
  938POSM   D2B10464  13.457   2.212   3.855 -0.2296  0.1909  0.1389
  938POSM   C3B10465  13.688   2.334   4.159 -0.1660  0.4505 -0.1504
  938POSM   C4B10466  13.784   2.676   4.378 -0.0281  0.0320 -0.0453
  939POPS   CNO10467  14.651  14.757   2.561  0.0049  0.1740  0.1619
  939POPS   PO410468  14.374  14.434   2.409  0.3295 -0.2088  0.1170
  939POPS   GL110469  14.087  14.455   2.717  0.0775  0.0884 -0.3773
  939POPS   GL210470  13.759  14.766   2.742  0.0559  0.0650 -0.1245
  939POPS   C1A10471  13.970  14.307   3.150 -0.0673 -0.0661 -0.2050
  939POPS   D2A10472  14.084  14.002   3.422  0.1351  0.1018 -0.0658
  939POPS   C3A10473  14.043  14.010   3.807  0.0148  0.0494  0.0072
  939POPS   C4A10474  13.898  13.858   4.136  0.1302  0.0686 -0.0135
  939POPS   C1B10475  13.976  14.778   3.193  0.0392  0.0419  0.0295
  939POPS   C2B10476  13.969  14.541   3.633  0.1864 -0.0279 -0.2207
  939POPS   C3B10477  13.885  14.443   4.094 -0.0735 -0.1581 -0.0947
  939POPS   C4B10478  13.457  14.484   4.206 -0.0988 -0.0439 -0.0643
  940POPE   NH310479   4.727  15.753   2.405 -0.1352 -0.1944  0.2897
  940POPE   PO410480   5.049  15.493   2.409 -0.1316  0.0490 -0.1438
  940POPE   GL110481   5.100  15.854   2.751 -0.1766  0.0943 -0.3333
  940POPE   GL210482   4.795  15.953   2.898 -0.1605 -0.0110  0.1693
  940POPE   C1A10483   5.219  15.808   3.154 -0.0684 -0.1196  0.0359
  940POPE   D2A10484   5.531  15.998   3.389 -0.0423 -0.0714 -0.3042
  940POPE   C3A10485   5.515  15.792   3.805 -0.0606  0.1505 -0.0922
  940POPE   C4A10486   5.956  15.760   3.823  0.3431  0.0138  0.0525
  940POPE   C1B10487   4.443  16.013   3.222 -0.2474 -0.1140 -0.0247
  940POPE   C2B10488   4.475  16.084   3.643 -0.0807  0.0259  0.4184
  940POPE   C3B10489   4.385  16.294   4.067 -0.0461 -0.1045  0.2325
  940POPE   C4B10490   4.175  16.411   4.425  0.1729  0.1605  0.0330
  941CHOL   ROH10491   1.946   1.719   2.901  0.0561 -0.2106 -0.0492
  941CHOL    R110492   1.838   1.645   3.151  0.0567 -0.1571 -0.0328
  941CHOL    R210493   1.870   1.393   3.259  0.1710 -0.0935  0.0806
  941CHOL    R310494   1.967   1.530   3.472  0.0684  0.0482  0.0381
  941CHOL    R410495   1.857   1.284   3.586  0.4492 -0.1099  0.0887
  941CHOL    R510496   1.809   1.488   3.647  0.1907 -0.1676  0.1032
  941CHOL    C110497   1.941   1.350   3.977  0.5148  0.0136  0.0534
  941CHOL    C210498   1.975   1.383   4.361 -0.3242  0.4037 -0.1345
  942POPC   NC310499   2.511  14.229   2.394 -0.0689  0.1143  0.0756
  942POPC   PO410500   2.034  14.282   2.334  0.1088 -0.1703  0.1174
  942POPC   GL110501   2.246  14.526   2.803 -0.0042 -0.0271 -0.1529
  942POPC   GL210502   2.303  14.968   2.771 -0.1177 -0.5258 -0.0455
  942POPC   C1A10503   2.121  14.352   3.185 -0.1514 -0.0052  0.0772
  942POPC   D2A10504   2.060  14.092   3.519 -0.0879 -0.0139 -0.1122
  942POPC   C3A10505   2.095  14.242   3.959 -0.0805 -0.1388  0.2588
  942POPC   C4A10506   1.880  14.348   4.356  0.0786  0.0799 -0.1196
  942POPC   C1B10507   2.155  14.932   3.229  0.0729  0.3210 -0.3233
  942POPC   C2B10508   2.094  14.691   3.651  0.0509 -0.0802  0.3219
  942POPC   C3B10509   1.877  14.748   4.003  0.0122  0.2537 -0.2456
  942POPC   C4B10510   1.640  14.803   4.310 -0.2136 -0.1796  0.0105
  943CHOL   ROH10511   0.945  11.859   3.085  0.0135 -0.0826 -0.0635
  943CHOL    R110512   1.076  11.804   3.329 -0.0522  0.1256  0.0201
  943CHOL    R210513   0.949  11.824   3.574 -0.2556 -0.1101 -0.0612
  943CHOL    R310514   1.037  11.568   3.604  0.1688  0.0309 -0.0275
  943CHOL    R410515   1.021  11.675   3.877 -0.1862 -0.0135 -0.0295
  943CHOL    R510516   1.195  11.581   3.784  0.0390  0.2896  0.0708
  943CHOL    C110517   1.146  11.348   4.082  0.2525  0.1750  0.0206
  943CHOL    C210518   1.363  11.350   4.328  0.2089 -0.0184  0.0812
  944POPC   NC310519   0.112  12.882   2.526 -0.0031 -0.0238 -0.3224
  944POPC   PO410520   0.553  12.762   2.380 -0.0697  0.0770  0.1427
  944POPC   GL110521   0.698  12.630   2.785  0.2103 -0.0711  0.0126
  944POPC   GL210522   0.776  12.358   2.826  0.0281 -0.0926  0.1860
  944POPC   C1A10523   0.787  12.919   3.104 -0.0348  0.1207  0.1312
  944POPC   D2A10524   0.658  13.200   3.323 -0.0551  0.0728  0.0359
  944POPC   C3A10525   0.830  13.229   3.773  0.1681 -0.0529 -0.1866
  944POPC   C4A10526   0.694  13.460   4.170  0.0919 -0.0546 -0.0028
  944POPC   C1B10527   0.844  12.282   3.358 -0.0228 -0.0219  0.3045
  944POPC   C2B10528   1.030  12.255   3.775 -0.2492 -0.2109  0.2739
  944POPC   C3B10529   1.149  12.291   4.188 -0.3788 -0.1814  0.1106
  944POPC   C4B10530   1.615  12.243   4.467 -0.0738 -0.1038  0.0788
  945POPE   NH310531  13.989   2.054   2.436  0.3006  0.2143  0.0985
  945POPE   PO410532  13.643   2.172   2.471 -0.1958  0.1399  0.1991
  945POPE   GL110533  13.932   2.281   2.892  0.0248 -0.2258 -0.0306
  945POPE   GL210534  13.923   2.046   3.053 -0.2389 -0.1300  0.1612
  945POPE   C1A10535  14.025   2.451   3.319  0.1178  0.0039  0.0312
  945POPE   D2A10536  13.958   2.348   3.755  0.0893  0.2245 -0.1445
  945POPE   C3A10537  14.283   2.158   3.898 -0.0992 -0.0989  0.1323
  945POPE   C4A10538  14.401   1.920   4.297 -0.2915 -0.1665  0.1330
  945POPE   C1B10539  13.760   1.800   3.189 -0.1034 -0.0632 -0.0244
  945POPE   C2B10540  13.509   1.745   3.560  0.1292  0.1205 -0.1621
  945POPE   C3B10541  13.218   1.719   3.874 -0.0778 -0.5036 -0.1763
  945POPE   C4B10542  13.059   1.327   4.163  0.0773  0.2402  0.0294
  946POPE   NH310543  16.258  12.262   2.710 -0.0996 -0.1138 -0.1674
  946POPE   PO410544  16.198  12.679   2.599 -0.4049 -0.0605  0.1266
  946POPE   GL110545  16.282  12.816   3.001  0.0233  0.0167 -0.1079
  946POPE   GL210546  16.069  13.118   3.090  0.0790  0.1288 -0.0833
  946POPE   C1A10547  16.527  12.938   3.426 -0.2246 -0.1377  0.3834
  946POPE   D2A10548  16.378  12.959   3.803 -0.2937  0.1327  0.1876
  946POPE   C3A10549  16.682  12.624   4.059 -0.0676 -0.0704 -0.0408
  946POPE   C4A10550  16.809  12.209   4.301 -0.3642 -0.1771  0.0585
  946POPE   C1B10551  16.107  13.345   3.456  0.3518 -0.2697  0.1923
  946POPE   C2B10552  16.429  13.530   3.839 -0.1251 -0.2482  0.0831
  946POPE   C3B10553  16.489  13.797   4.167  0.1157  0.0565 -0.1755
  946POPE   C4B10554  16.812  13.782   4.430 -0.0739  0.0534  0.2295
  947POPC   NC310555  16.193   4.238   1.921 -0.0262 -0.2348  0.0252
  947POPC   PO410556  16.439   4.465   2.172  0.3165  0.2345  0.1421
  947POPC   GL110557  16.465   4.440   2.598  0.0146 -0.3450  0.2356
  947POPC   GL210558  16.199   4.227   2.683  0.1433 -0.0651  0.1465
  947POPC   C1A10559  16.692   4.360   3.007 -0.1815  0.1586  0.1563
  947POPC   D2A10560  16.690   4.182   3.454 -0.4184 -0.0100  0.0507
  947POPC   C3A10561  16.998   4.256   3.745 -0.0597  0.1015 -0.0454
  947POPC   C4A10562  17.217   4.068   4.081 -0.0807  0.2465  0.0283
  947POPC   C1B10563  16.287   4.009   3.069 -0.3225  0.1681 -0.0482
  947POPC   C2B10564  16.340   3.830   3.428 -0.1956 -0.1959  0.1007
  947POPC   C3B10565  16.557   3.726   3.854 -0.0031  0.1253 -0.3061
  947POPC   C4B10566  16.934   3.555   4.042  0.0696  0.4219  0.1413
  948POSM   NC310567  15.668  14.043   2.410  0.2884 -0.1850  0.1769
  948POSM   PO410568  15.727  14.430   2.671 -0.0419 -0.1590  0.1388
  948POSM   AM110569  15.457  14.392   3.001 -0.1674  0.1810  0.1308
  948POSM   AM210570  15.279  14.172   2.797  0.1583  0.1273  0.2401
  948POSM   T1A10571  15.465  14.443   3.407 -0.0232 -0.0009  0.0420
  948POSM   C2A10572  15.611  14.775   3.614  0.0424 -0.0808 -0.0538
  948POSM   C3A10573  15.965  14.986   3.737 -0.2125  0.0103  0.2067
  948POSM   C1B10574  15.310  13.925   3.141 -0.4178  0.3535  0.0465
  948POSM   D2B10575  15.152  14.011   3.518 -0.0354  0.1640 -0.1606
  948POSM   C3B10576  14.802  13.820   3.701  0.1162  0.2187 -0.4111
  948POSM   C4B10577  14.571  13.792   4.110 -0.1472 -0.1149 -0.0608
  949POPC   NC310578   1.128  14.854   2.593 -0.1380  0.0781 -0.0174
  949POPC   PO410579   1.217  14.418   2.551  0.2435  0.1668 -0.0461
  949POPC   GL110580   1.319  14.107   2.897  0.0650 -0.1612  0.2016
  949POPC   GL210581   1.113  13.938   3.000 -0.2402  0.1986  0.0292
  949POPC   C1A10582   1.644  14.196   3.253  0.1649  0.0749  0.2459
  949POPC   D2A10583   1.682  14.551   3.568  0.1720  0.2231  0.1904
  949POPC   C3A10584   1.302  14.615   3.878 -0.2376 -0.0035  0.4302
  949POPC   C4A10585   0.914  14.582   4.067 -0.2568  0.1610 -0.4107
  949POPC   C1B10586   1.170  14.002   3.363 -0.2761  0.0813 -0.1724
  949POPC   C2B10587   1.141  14.176   3.744  0.0389  0.0993 -0.0084
  949POPC   C3B10588   1.367  14.087   4.226 -0.1334  0.2017  0.3198
  949POPC   C4B10589   1.570  14.070   4.640  0.0517 -0.1031  0.0051
  950POPC   NC310590  11.868   0.007   2.261 -0.0964  0.1336 -0.0821
  950POPC   PO410591  12.292  -0.132   2.340  0.0791  0.1561  0.1370
  950POPC   GL110592  12.234  -0.154   2.798  0.2793 -0.0515  0.1060
  950POPC   GL210593  11.978  -0.073   2.786 -0.2311  0.0425 -0.2712
  950POPC   C1A10594  12.194  -0.105   3.296  0.1528  0.1489 -0.1508
  950POPC   D2A10595  12.135  -0.030   3.736  0.1302 -0.3899 -0.1146
  950POPC   C3A10596  12.259   0.228   4.088 -0.0849 -0.2428  0.0118
  950POPC   C4A10597  12.138   0.381   4.450 -0.2256  0.1977  0.5927
  950POPC   C1B10598  11.785   0.134   3.053 -0.2920  0.1325  0.1772
  950POPC   C2B10599  11.697   0.178   3.270  0.2254 -0.0129 -0.1890
  950POPC   C3B10600  11.740   0.319   3.711  0.1257  0.1275 -0.0501
  950POPC   C4B10601  11.629   0.351   4.086 -0.0247  0.0798  0.0168
  951POPC   NC310602  13.144  16.530   2.280 -0.1462  0.0390 -0.1758
  951POPC   PO410603  12.860  16.117   2.209  0.2494 -0.1993 -0.0312
  951POPC   GL110604  12.733  16.454   2.627 -0.2216  0.2265  0.0472
  951POPC   GL210605  12.942  16.397   2.805  0.2364  0.2519  0.2758
  951POPC   C1A10606  12.584  16.662   3.014 -0.3928  0.0119  0.2124
  951POPC   D2A10607  12.584  16.716   3.497 -0.2299  0.2361 -0.0728
  951POPC   C3A10608  12.761  16.679   3.905  0.4867  0.0715 -0.1755
  951POPC   C4A10609  12.718  16.510   4.227  0.1202  0.2952  0.3700
  951POPC   C1B10610  13.155  16.397   3.329 -0.1944  0.3395  0.1187
  951POPC   C2B10611  13.151  16.443   3.791  0.1073 -0.1239 -0.0471
  951POPC   C3B10612  13.237  16.561   4.204  0.0801 -0.4107 -0.3133
  951POPC   C4B10613  13.116  16.819   4.474  0.1335  0.1828 -0.0915
  952POSM   NC310614  16.341   2.458   1.829  0.1044 -0.0323 -0.1175
  952POSM   PO410615  16.548   2.624   2.076  0.0971  0.0621 -0.2134
  952POSM   AM110616  16.334   2.467   2.457  0.2628 -0.0728 -0.0473
  952POSM   AM210617  16.255   2.786   2.528  0.0735  0.1873  0.0800
  952POSM   T1A10618  16.317   2.508   2.973  0.1364  0.2734 -0.3106
  952POSM   C2A10619  16.356   2.541   3.431  0.1204  0.1807  0.2269
  952POSM   C3A10620  16.232   2.540   3.877  0.0538  0.0368 -0.0288
  952POSM   C1B10621  16.305   3.016   2.894  0.2070  0.0918 -0.0634
  952POSM   D2B10622  16.329   3.331   3.286 -0.0975  0.2370  0.3389
  952POSM   C3B10623  16.688   3.450   3.458  0.1653  0.1202  0.2843
  952POSM   C4B10624  16.990   3.796   3.529  0.0075  0.1154 -0.0376
  953POPS   CNO10625   1.454   1.661   2.004 -0.1646 -0.2073  0.1081
  953POPS   PO410626   1.199   1.511   2.385 -0.2097  0.1601  0.1672
  953POPS   GL110627   1.091   1.418   2.802  0.0276 -0.1536 -0.1918
  953POPS   GL210628   1.228   1.214   2.965 -0.3886 -0.0373  0.0310
  953POPS   C1A10629   0.960   1.558   3.279 -0.2775 -0.3817 -0.1537
  953POPS   D2A10630   0.898   1.741   3.640 -0.4264  0.2560 -0.3420
  953POPS   C3A10631   1.017   1.556   4.057 -0.0296  0.0451  0.0853
  953POPS   C4A10632   1.158   1.817   4.376 -0.0682 -0.1371 -0.0376
  953POPS   C1B10633   1.393   1.185   3.294  0.2491 -0.1316  0.0027
  953POPS   C2B10634   1.349   1.298   3.722  0.1569  0.0107  0.4020
  953POPS   C3B10635   1.232   0.985   4.156 -0.3476 -0.1781  0.0599
  953POPS   C4B10636   1.198   0.778   4.458  0.1415  0.0019 -0.1126
  954CHOL   ROH10637  16.303   2.029   2.755 -0.0180 -0.1085  0.0191
  954CHOL    R110638  16.514   2.013   2.942  0.0787 -0.2567 -0.1004
  954CHOL    R210639  16.487   2.096   3.205  0.3718  0.0549 -0.1643
  954CHOL    R310640  16.575   1.845   3.259  0.0061 -0.0388  0.0317
  954CHOL    R410641  16.626   1.996   3.505  0.3544  0.1234 -0.1323
  954CHOL    R510642  16.771   1.878   3.393  0.1249 -0.2137 -0.0905
  954CHOL    C110643  16.789   1.702   3.731  0.0010  0.0752  0.0704
  954CHOL    C210644  17.148   1.509   3.904  0.2439 -0.1083  0.1078
  955POPC   NC310645  13.945  16.097   2.379  0.0512  0.0083  0.2008
  955POPC   PO410646  13.873  15.786   2.653 -0.1451 -0.2271 -0.0115
  955POPC   GL110647  13.894  15.586   3.010  0.0388 -0.1269 -0.2364
  955POPC   GL210648  13.973  15.307   2.949  0.0776 -0.0369  0.0790
  955POPC   C1A10649  13.920  15.769   3.488  0.1448  0.0964 -0.1179
  955POPC   D2A10650  13.790  15.938   3.956  0.0443 -0.0175 -0.1099
  955POPC   C3A10651  13.347  16.011   3.945  0.1567 -0.3353 -0.1915
  955POPC   C4A10652  12.954  16.079   4.042 -0.0049 -0.0557  0.1756
  955POPC   C1B10653  14.153  15.260   3.292  0.1668  0.2626  0.0177
  955POPC   C2B10654  14.170  15.036   3.660  0.1759 -0.2057 -0.0638
  955POPC   C3B10655  14.217  15.114   4.034 -0.1090  0.0329 -0.0878
  955POPC   C4B10656  14.385  15.240   4.432 -0.0138  0.0069  0.1236
  956POPS   CNO10657  14.727   2.642   2.099 -0.1219  0.2909  0.1082
  956POPS   PO410658  14.993   2.654   2.481 -0.1818 -0.1270 -0.0632
  956POPS   GL110659  14.964   2.750   2.912  0.1379  0.0217  0.0960
  956POPS   GL210660  14.630   2.716   3.158  0.0749  0.0843 -0.0309
  956POPS   C1A10661  15.148   2.780   3.210  0.0682  0.2029 -0.3689
  956POPS   D2A10662  15.176   2.780   3.669 -0.0582 -0.0813 -0.0790
  956POPS   C3A10663  15.170   2.508   3.938 -0.3451 -0.0557 -0.2068
  956POPS   C4A10664  15.423   2.511   4.296 -0.0067 -0.4587  0.0521
  956POPS   C1B10665  14.450   2.596   3.584  0.0695 -0.1791 -0.1101
  956POPS   C2B10666  14.662   2.617   3.989 -0.1444  0.1542  0.1693
  956POPS   C3B10667  14.779   2.378   4.342  0.0671  0.3218  0.2234
  956POPS   C4B10668  14.816   2.367   4.785 -0.1275 -0.0116  0.1128
  957POPC   NC310669   3.769  15.744   2.270 -0.0885 -0.2317 -0.2493
  957POPC   PO410670   3.819  16.149   2.255  0.2475  0.1261 -0.0385
  957POPC   GL110671   3.732  16.181   2.609 -0.1338  0.1456 -0.1569
  957POPC   GL210672   4.066  15.995   2.814 -0.1130  0.0278  0.1630
  957POPC   C1A10673   3.520  16.067   3.011 -0.1535  0.1665 -0.0550
  957POPC   D2A10674   3.383  16.210   3.461  0.0579  0.1571  0.1946
  957POPC   C3A10675   3.457  16.020   3.874  0.2951  0.0562 -0.0561
  957POPC   C4A10676   3.409  15.851   4.277  0.1177  0.3043 -0.0240
  957POPC   C1B10677   3.873  15.795   3.247 -0.0375  0.0261  0.2768
  957POPC   C2B10678   3.958  15.800   3.718  0.2734  0.1316 -0.3051
  957POPC   C3B10679   3.840  15.606   4.134  0.2429 -0.0790 -0.0381
  957POPC   C4B10680   3.570  15.346   4.313 -0.1177  0.0565  0.1253
  958POPS   CNO10681  16.296  13.210   2.610 -0.0201 -0.1839  0.0017
  958POPS   PO410682  16.569  13.377   2.648 -0.1657  0.1955  0.1046
  958POPS   GL110683  16.646  13.127   2.947  0.0282 -0.3436  0.1181
  958POPS   GL210684  16.825  12.854   2.971 -0.2494 -0.2378  0.0692
  958POPS   C1A10685  16.691  13.395   3.358  0.0701 -0.2068 -0.0569
  958POPS   D2A10686  16.923  13.260   3.705  0.0226  0.1435  0.1229
  958POPS   C3A10687  16.761  13.337   4.142  0.0576 -0.1890 -0.0973
  958POPS   C4A10688  16.512  13.248   4.387  0.1807 -0.2134  0.2712
  958POPS   C1B10689  17.005  12.592   3.341  0.0520  0.0863 -0.1582
  958POPS   C2B10690  17.052  12.773   3.762  0.1341 -0.4752 -0.0243
  958POPS   C3B10691  17.125  13.017   4.187  0.1405 -0.2959  0.1222
  958POPS   C4B10692  17.073  13.104   4.549 -0.0534  0.0582 -0.1022
  959POPS   CNO10693   3.574   0.511   2.000  0.3442 -0.1628 -0.0569
  959POPS   PO410694   3.417   0.551   2.413  0.2850  0.0200 -0.1313
  959POPS   GL110695   3.437   0.762   2.700 -0.0547  0.1226 -0.0988
  959POPS   GL210696   3.390   1.137   2.539  0.0558  0.0218 -0.0771
  959POPS   C1A10697   3.208   0.838   3.106  0.1454 -0.1865  0.0467
  959POPS   D2A10698   3.145   0.862   3.508 -0.4397  0.1190 -0.2043
  959POPS   C3A10699   3.049   0.607   3.742  0.1990 -0.1016 -0.1019
  959POPS   C4A10700   2.718   0.309   3.810 -0.0296 -0.1315 -0.0676
  959POPS   C1B10701   3.163   1.275   2.815  0.2867  0.0656  0.1142
  959POPS   C2B10702   2.871   1.260   3.174  0.0397 -0.2456 -0.4249
  959POPS   C3B10703   2.867   1.259   3.572 -0.0537 -0.0368 -0.0360
  959POPS   C4B10704   3.063   1.109   3.940  0.1987  0.2053  0.0190
  960POPE   NH310705  15.413  14.914   2.428  0.0016 -0.0255  0.0116
  960POPE   PO410706  15.250  14.563   2.557 -0.2987  0.2932  0.1392
  960POPE   GL110707  14.943  14.594   2.945 -0.2887  0.0209  0.1010
  960POPE   GL210708  14.537  14.604   2.993  0.0490  0.0503 -0.1360
  960POPE   C1A10709  14.904  14.398   3.284  0.0555 -0.2837 -0.0599
  960POPE   D2A10710  14.917  14.383   3.726  0.0001 -0.2288  0.1359
  960POPE   C3A10711  15.335  14.451   3.872 -0.0814 -0.0305 -0.2270
  960POPE   C4A10712  15.516  14.760   4.163 -0.1183 -0.0758  0.1121
  960POPE   C1B10713  14.397  14.696   3.423  0.0168 -0.0163 -0.1343
  960POPE   C2B10714  14.558  14.725   3.918 -0.2836 -0.0247  0.0197
  960POPE   C3B10715  14.803  14.398   4.211  0.0805  0.1534  0.0960
  960POPE   C4B10716  15.063  14.016   4.110 -0.0164 -0.0540  0.0731
  961POPC   NC310717   0.742  14.559   2.339 -0.0519 -0.1825  0.0747
  961POPC   PO410718   0.766  14.232   2.686 -0.0021 -0.2489  0.2104
  961POPC   GL110719   0.655  14.072   3.168  0.1732 -0.0912 -0.1861
  961POPC   GL210720   0.525  13.699   3.261 -0.1123  0.2515 -0.0818
  961POPC   C1A10721   0.519  14.254   3.690 -0.0279  0.0289  0.0892
  961POPC   D2A10722   0.118  14.184   3.942  0.3435 -0.1401  0.1211
  961POPC   C3A10723  -0.054  14.547   4.116  0.3327 -0.0378 -0.0974
  961POPC   C4A10724   0.182  15.067   4.153 -0.1176 -0.0959  0.0318
  961POPC   C1B10725   0.775  13.797   3.683 -0.0616  0.1063  0.1146
  961POPC   C2B10726   1.110  13.686   3.885  0.0334  0.0193 -0.2697
  961POPC   C3B10727   1.513  13.630   4.056  0.3519  0.1346  0.0078
  961POPC   C4B10728   1.906  13.348   4.244 -0.1718 -0.1050 -0.0157
  962POPS   CNO10729  13.317   0.399   2.173  0.2005 -0.0775 -0.2333
  962POPS   PO410730  12.949   0.392   2.438  0.0680 -0.0078  0.3569
  962POPS   GL110731  12.855   0.577   2.815 -0.0276  0.1547  0.3151
  962POPS   GL210732  12.932   0.912   2.792  0.1683 -0.1678 -0.1357
  962POPS   C1A10733  12.631   0.610   3.246 -0.0359 -0.0799  0.2208
  962POPS   D2A10734  12.693   0.630   3.582 -0.1651  0.1095 -0.0504
  962POPS   C3A10735  12.493   0.607   3.883  0.1833  0.0582 -0.1050
  962POPS   C4A10736  12.362   0.797   4.234 -0.0403  0.0465 -0.1732
  962POPS   C1B10737  13.015   0.959   3.147  0.1217  0.1733  0.1788
  962POPS   C2B10738  13.176   0.802   3.584  0.3828 -0.1728 -0.0651
  962POPS   C3B10739  13.371   0.771   3.920 -0.0669 -0.1106  0.0033
  962POPS   C4B10740  13.286   0.871   4.253 -0.0309  0.3649  0.3206
  963POPE   NH310741   2.831   0.473   2.424 -0.0708  0.3534  0.1088
  963POPE   PO410742   3.041   0.080   2.469 -0.0869  0.0497 -0.0832
  963POPE   GL110743   3.305  -0.136   2.773 -0.0806  0.0402  0.1040
  963POPE   GL210744   3.053  -0.204   3.055  0.1731 -0.0180  0.0513
  963POPE   C1A10745   3.569   0.014   3.121 -0.0389 -0.3291  0.0811
  963POPE   D2A10746   3.669   0.072   3.573 -0.1562 -0.1352  0.2832
  963POPE   C3A10747   3.997   0.209   3.826 -0.3575  0.0924 -0.0025
  963POPE   C4A10748   4.347   0.180   4.048 -0.1471 -0.4645  0.0797
  963POPE   C1B10749   2.880  -0.504   3.397 -0.1675  0.0732 -0.1246
  963POPE   C2B10750   3.004  -0.678   3.780  0.0957  0.0872 -0.0910
  963POPE   C3B10751   2.875  -0.334   4.035  0.1946 -0.1456  0.1226
  963POPE   C4B10752   2.668  -0.042   4.247  0.1897  0.3577  0.1914
  964POSM   NC310753   3.322  15.476   1.783  0.0193 -0.0566 -0.3204
  964POSM   PO410754   3.202  15.291   2.184 -0.1516  0.1485  0.0102
  964POSM   AM110755   3.251  15.403   2.671 -0.2685  0.3554  0.2014
  964POSM   AM210756   2.965  15.404   2.790 -0.2681 -0.1454  0.0672
  964POSM   T1A10757   3.381  15.628   3.048 -0.0153 -0.0382  0.0834
  964POSM   C2A10758   3.471  15.665   3.473 -0.2040  0.1307  0.0600
  964POSM   C3A10759   3.459  15.545   3.859  0.1803  0.0646  0.1106
  964POSM   C1B10760   2.656  15.200   3.084 -0.2842  0.2003 -0.0334
  964POSM   D2B10761   2.631  15.121   3.481 -0.2059 -0.0729 -0.3769
  964POSM   C3B10762   2.835  14.784   3.547  0.0454 -0.0374  0.2818
  964POSM   C4B10763   2.922  14.343   3.261  0.1420  0.0742 -0.0921
  965POPS   CNO10764  15.606  13.201   1.979  0.0283  0.0636 -0.4577
  965POPS   PO410765  15.873  13.280   2.298 -0.3982 -0.1215  0.0655
  965POPS   GL110766  15.728  13.153   2.741 -0.3565 -0.3058  0.0833
  965POPS   GL210767  15.617  12.879   2.904  0.0351  0.0299 -0.0812
  965POPS   C1A10768  15.757  13.553   3.060  0.1194 -0.1137  0.0068
  965POPS   D2A10769  15.669  13.606   3.467 -0.2001  0.2262  0.0045
  965POPS   C3A10770  15.932  13.669   3.860  0.0668  0.2021  0.1723
  965POPS   C4A10771  15.851  13.655   4.240  0.1008  0.1620  0.0524
  965POPS   C1B10772  15.628  13.100   3.247  0.1295  0.0591 -0.0797
  965POPS   C2B10773  15.541  13.156   3.664  0.2453  0.1907 -0.0962
  965POPS   C3B10774  15.749  13.162   3.998 -0.0829 -0.1033  0.0439
  965POPS   C4B10775  16.090  13.249   4.150  0.3423 -0.1700 -0.2742
  966POPC   NC310776  13.252   1.809   2.515 -0.2132  0.0515 -0.1708
  966POPC   PO410777  13.070   1.355   2.508 -0.0504  0.0011 -0.0657
  966POPC   GL110778  13.101   1.503   2.932  0.1202  0.0315 -0.1931
  966POPC   GL210779  12.838   1.711   3.122  0.2019  0.2848  0.4655
  966POPC   C1A10780  13.430   1.422   3.188  0.0601  0.1536 -0.1788
  966POPC   D2A10781  13.876   1.396   3.569  0.0612 -0.1402 -0.0678
  966POPC   C3A10782  13.961   1.215   3.884 -0.1630  0.1096  0.1191
  966POPC   C4A10783  13.871   0.999   4.210  0.3258  0.0531 -0.2851
  966POPC   C1B10784  12.891   1.447   3.468 -0.1541  0.0270  0.1920
  966POPC   C2B10785  12.850   1.149   3.638  0.0261 -0.1387  0.1522
  966POPC   C3B10786  12.809   0.922   4.027 -0.1046 -0.1735 -0.2410
  966POPC   C4B10787  12.887   0.899   4.465  0.1330 -0.2475  0.1960
  967POPE   NH310788   0.773   3.849   2.363  0.1703 -0.1226  0.1405
  967POPE   PO410789   0.372   3.619   2.218  0.1037  0.2113  0.2711
  967POPE   GL110790   0.325   3.373   2.601  0.1484  0.1000  0.0083
  967POPE   GL210791   0.570   3.528   2.781 -0.1030  0.0938 -0.0030
  967POPE   C1A10792   0.145   3.224   2.951 -0.1443 -0.1812 -0.1572
  967POPE   D2A10793   0.093   2.968   3.303 -0.1722  0.4005 -0.1352
  967POPE   C3A10794   0.063   2.962   3.761  0.2992  0.0882  0.1243
  967POPE   C4A10795  -0.251   2.958   4.138  0.0291  0.0084  0.1365
  967POPE   C1B10796   0.567   3.468   3.191 -0.0074  0.0976 -0.1157
  967POPE   C2B10797   0.781   3.414   3.503 -0.1478  0.1830 -0.0517
  967POPE   C3B10798   0.808   3.511   3.892 -0.1581 -0.0808  0.0726
  967POPE   C4B10799   0.798   3.545   4.283 -0.1066  0.1676 -0.0256
  968POSM   NC310800   2.202   1.183   2.360  0.1045 -0.0373  0.1326
  968POSM   PO410801   2.620   0.910   2.275  0.0071  0.2082  0.2081
  968POSM   AM110802   2.389   0.832   2.634  0.2603  0.0340 -0.0026
  968POSM   AM210803   2.398   0.465   2.690  0.0538  0.2885  0.0592
  968POSM   T1A10804   2.561   0.906   3.042  0.0997 -0.0052  0.1292
  968POSM   C2A10805   2.705   0.753   3.403  0.2869  0.0889 -0.2012
  968POSM   C3A10806   2.610   0.898   3.795  0.1976 -0.0021  0.1852
  968POSM   C1B10807   2.367   0.332   3.163 -0.0354 -0.0209 -0.0306
  968POSM   D2B10808   2.122   0.427   3.507  0.0001  0.1300  0.1589
  968POSM   C3B10809   2.253   0.458   3.907 -0.0077  0.0715 -0.1649
  968POSM   C4B10810   2.466   0.555   4.350  0.0636  0.2157 -0.1465
  969POPC   NC310811   0.008   1.216   2.012 -0.0323 -0.2288  0.0293
  969POPC   PO410812  -0.298   1.459   2.163 -0.1099  0.3767  0.3161
  969POPC   GL110813  -0.278   1.563   2.574 -0.0264  0.1641  0.1063
  969POPC   GL210814  -0.039   1.460   2.832  0.2428 -0.0985 -0.1965
  969POPC   C1A10815  -0.484   1.635   2.979  0.1882 -0.1818 -0.2815
  969POPC   D2A10816  -0.550   1.687   3.402 -0.2502  0.0252  0.0341
  969POPC   C3A10817  -0.303   1.670   3.750 -0.0520  0.1446 -0.0351
  969POPC   C4A10818  -0.033   1.505   4.139 -0.2644 -0.3693  0.3366
  969POPC   C1B10819  -0.133   1.357   3.287 -0.0415  0.3009 -0.2137
  969POPC   C2B10820  -0.081   1.204   3.673 -0.2189 -0.0191  0.0240
  969POPC   C3B10821  -0.400   1.106   3.931 -0.0584 -0.0623  0.0008
  969POPC   C4B10822  -0.451   1.234   4.343 -0.1629 -0.0165  0.0003
  970CHOL   ROH10823  15.467   2.577   2.816 -0.0680 -0.0986  0.0702
  970CHOL    R110824  15.571   2.450   3.047 -0.0694 -0.0568  0.0943
  970CHOL    R210825  15.717   2.586   3.238 -0.0687 -0.0220  0.0710
  970CHOL    R310826  15.531   2.483   3.407 -0.0709  0.0107  0.0879
  970CHOL    R410827  15.785   2.460   3.553 -0.0335 -0.2043 -0.0086
  970CHOL    R510828  15.643   2.299   3.513 -0.1414 -0.1034 -0.0331
  970CHOL    C110829  15.650   2.290   3.895 -0.0151 -0.2798 -0.0390
  970CHOL    C210830  15.966   2.061   4.106  0.0134  0.0509  0.4152
  971POPC   NC310831   1.732  15.571   2.428  0.1950  0.2367 -0.0869
  971POPC   PO410832   1.545  15.137   2.523 -0.2460  0.0010  0.3196
  971POPC   GL110833   1.648  15.395   2.881 -0.1335  0.0989  0.1613
  971POPC   GL210834   1.959  15.312   2.818 -0.0915  0.0854 -0.2872
  971POPC   C1A10835   1.696  15.437   3.290  0.3275  0.0225  0.0381
  971POPC   D2A10836   1.683  15.599   3.699  0.1229 -0.0518  0.3113
  971POPC   C3A10837   1.707  15.341   4.030  0.0209 -0.1417  0.1232
  971POPC   C4A10838   1.962  15.189   4.359 -0.0026  0.1275 -0.1060
  971POPC   C1B10839   2.215  15.411   3.086  0.2551  0.0318  0.0955
  971POPC   C2B10840   2.224  15.415   3.553  0.2482 -0.0702  0.3604
  971POPC   C3B10841   2.150  15.230   3.881  0.0984  0.2755  0.2832
  971POPC   C4B10842   2.590  14.975   3.963 -0.0690  0.0471  0.3147
  972POPS   CNO10843  14.529   1.841   2.013  0.1159 -0.2135  0.3051
  972POPS   PO410844  14.360   1.744   2.446  0.5081 -0.2128  0.2470
  972POPS   GL110845  14.194   1.581   2.874 -0.0964  0.1728  0.3472
  972POPS   GL210846  14.239   1.709   3.124 -0.2714  0.0077 -0.1269
  972POPS   C1A10847  13.913   1.217   3.111  0.2094 -0.0035  0.2769
  972POPS   D2A10848  13.709   0.900   3.349  0.0526 -0.2577  0.0307
  972POPS   C3A10849  13.941   0.599   3.159 -0.1146 -0.1678  0.0140
  972POPS   C4A10850  13.989   0.235   3.238  0.0301 -0.2107  0.4089
  972POPS   C1B10851  14.110   1.864   3.529 -0.0903 -0.1501  0.0473
  972POPS   C2B10852  13.870   1.857   3.939 -0.1631  0.0371  0.0343
  972POPS   C3B10853  13.595   1.518   4.064  0.3524  0.0986 -0.0785
  972POPS   C4B10854  13.329   1.272   3.625 -0.1352 -0.1447 -0.2511
  973POPS   CNO10855  15.584  13.693   2.029 -0.2067 -0.1025 -0.2028
  973POPS   PO410856  15.212  13.947   2.231 -0.0233  0.2744 -0.1880
  973POPS   GL110857  14.972  13.720   2.592 -0.0481 -0.1689 -0.1424
  973POPS   GL210858  14.810  13.432   2.601 -0.3339 -0.0001  0.0360
  973POPS   C1A10859  14.867  13.821   2.988  0.1547  0.0669 -0.0558
  973POPS   D2A10860  14.549  14.033   3.281 -0.2170 -0.2245  0.1892
  973POPS   C3A10861  14.452  14.278   3.674  0.0809  0.1466  0.0716
  973POPS   C4A10862  14.302  14.252   4.140 -0.1432 -0.3573  0.1883
  973POPS   C1B10863  14.752  13.357   3.093 -0.1065  0.2965  0.3657
  973POPS   C2B10864  14.789  13.367   3.531  0.0678  0.0411  0.1548
  973POPS   C3B10865  14.867  13.357   3.992  0.3526  0.3242  0.0077
  973POPS   C4B10866  14.598  13.313   4.254 -0.0153 -0.1487 -0.0514
  974CHOL   ROH10867   1.793  14.774   2.833 -0.0553 -0.0715 -0.1707
  974CHOL    R110868   1.667  14.656   3.058 -0.0729 -0.0260 -0.1577
  974CHOL    R210869   1.494  14.796   3.220 -0.0568  0.0170 -0.1846
  974CHOL    R310870   1.326  14.589   3.165 -0.0845  0.0259 -0.1543
  974CHOL    R410871   1.193  14.738   3.380 -0.0636  0.0868 -0.1695
  974CHOL    R510872   1.239  14.525   3.378 -0.0891  0.0723 -0.1362
  974CHOL    C110873   0.860  14.510   3.420 -0.0934  0.1358 -0.1324
  974CHOL    C210874   0.443  14.606   3.315 -0.2394  0.1121 -0.1734
  975POPS   CNO10875   1.610   0.755   2.188 -0.1052 -0.0462 -0.2700
  975POPS   PO410876   1.797   0.960   2.603  0.3216 -0.0840  0.2074
  975POPS   GL110877   1.774   0.816   2.913 -0.1454 -0.0611  0.0463
  975POPS   GL210878   2.004   0.686   3.005 -0.2464 -0.0306 -0.1053
  975POPS   C1A10879   1.692   0.771   3.416 -0.1435  0.1005 -0.2475
  975POPS   D2A10880   1.632   0.897   3.864  0.0131 -0.0300  0.0701
  975POPS   C3A10881   1.524   0.492   4.026  0.3135 -0.1321 -0.0440
  975POPS   C4A10882   1.253   0.263   4.337  0.0311 -0.1220 -0.4029
  975POPS   C1B10883   2.104   0.942   3.272 -0.0652  0.1950 -0.1317
  975POPS   C2B10884   2.104   0.888   3.699  0.2031  0.0563 -0.2502
  975POPS   C3B10885   2.251   0.996   4.161  0.0974 -0.3936 -0.2321
  975POPS   C4B10886   2.179   0.866   4.617 -0.1795 -0.4438 -0.1267
  976POPC   NC310887   0.747  13.689   2.634 -0.1910  0.1092  0.0265
  976POPC   PO410888   0.376  13.800   2.816 -0.2641 -0.0201 -0.1554
  976POPC   GL110889   0.007  13.783   3.036 -0.0772  0.2586 -0.1825
  976POPC   GL210890  -0.332  13.578   2.960 -0.1558 -0.1153 -0.0461
  976POPC   C1A10891   0.183  13.906   3.483  0.0087 -0.4210 -0.2319
  976POPC   D2A10892   0.323  13.709   3.874 -0.0396 -0.1336 -0.0425
  976POPC   C3A10893   0.590  13.975   4.131 -0.6300  0.1809 -0.1202
  976POPC   C4A10894   0.798  14.234   4.433 -0.1515 -0.2979  0.1726
  976POPC   C1B10895  -0.443  13.804   3.312 -0.1827 -0.0913  0.1848
  976POPC   C2B10896  -0.288  14.054   3.716  0.1333  0.1959 -0.2632
  976POPC   C3B10897  -0.470  14.076   4.085 -0.0976 -0.0542 -0.2701
  976POPC   C4B10898  -0.660  14.067   4.538 -0.3600 -0.1872 -0.2774
  977POSM   NC310899  14.907   0.629   2.043  0.2395 -0.4656  0.2753
  977POSM   PO410900  14.980   1.007   2.437  0.0967 -0.1791 -0.0663
  977POSM   AM110901  15.087   1.394   2.767 -0.0138  0.3160 -0.2614
  977POSM   AM210902  15.165   1.761   2.740  0.2679  0.0602  0.1241
  977POSM   T1A10903  15.171   1.383   3.157 -0.2211 -0.0926 -0.0717
  977POSM   C2A10904  15.184   1.434   3.588  0.3952  0.0310 -0.0765
  977POSM   C3A10905  15.414   1.456   4.002  0.2397 -0.0203  0.0932
  977POSM   C1B10906  14.889   1.771   3.205 -0.2550  0.0399 -0.0393
  977POSM   D2B10907  14.709   1.760   3.541 -0.1107  0.3909 -0.0339
  977POSM   C3B10908  14.827   1.474   3.947 -0.0392  0.1156  0.1986
  977POSM   C4B10909  14.624   1.423   4.372  0.1612  0.1737 -0.1339
  978POPE   NH310910   0.736   3.263   2.365 -0.1344 -0.0333 -0.0801
  978POPE   PO410911   0.603   2.873   2.378  0.0558  0.3337 -0.2135
  978POPE   GL110912   0.551   2.931   2.856 -0.0690  0.0792 -0.1672
  978POPE   GL210913   0.282   2.687   2.949  0.0890 -0.0654  0.2895
  978POPE   C1A10914   0.598   2.950   3.227 -0.3887  0.2288  0.2109
  978POPE   D2A10915   0.639   2.766   3.618  0.0398 -0.1239  0.0386
  978POPE   C3A10916   0.592   3.020   3.875  0.1046  0.0140  0.1441
  978POPE   C4A10917   0.290   3.068   4.222  0.2822  0.0538 -0.2716
  978POPE   C1B10918   0.295   2.464   3.315 -0.1652  0.3275  0.0014
  978POPE   C2B10919   0.158   2.418   3.708 -0.4224 -0.3519 -0.0769
  978POPE   C3B10920   0.067   2.554   4.149 -0.0165 -0.2104  0.3232
  978POPE   C4B10921  -0.037   2.772   4.554  0.1870  0.3974 -0.0787
  979POPE   NH310922  14.072   0.591   2.329 -0.0569  0.4200 -0.3921
  979POPE   PO410923  13.702   0.777   2.345  0.0301  0.0475 -0.0766
  979POPE   GL110924  13.582   0.533   2.663 -0.0726 -0.0068 -0.0368
  979POPE   GL210925  13.344   0.238   2.726  0.3801 -0.2282 -0.0000
  979POPE   C1A10926  13.351   0.629   3.044 -0.1649 -0.2543 -0.1197
  979POPE   D2A10927  12.995   0.284   3.157 -0.1261  0.1119  0.2422
  979POPE   C3A10928  13.078   0.310   3.616 -0.4635  0.3195 -0.0076
  979POPE   C4A10929  13.084   0.410   3.996 -0.2608 -0.3989 -0.0498
  979POPE   C1B10930  13.471   0.120   3.072  0.2452  0.2208 -0.1737
  979POPE   C2B10931  13.579   0.386   3.432  0.3060 -0.2685 -0.0190
  979POPE   C3B10932  13.670   0.337   3.878  0.0754  0.1745  0.0046
  979POPE   C4B10933  13.575   0.461   4.281 -0.0334 -0.3189 -0.0705
  980POPE   NH310934   0.711  15.462   2.472 -0.2453 -0.0232 -0.1121
  980POPE   PO410935   0.682  15.047   2.504  0.3411 -0.0917 -0.4336
  980POPE   GL110936   0.610  15.170   2.917 -0.0169 -0.0890  0.0252
  980POPE   GL210937   0.238  15.104   2.985 -0.2515 -0.1007 -0.1556
  980POPE   C1A10938   0.752  15.092   3.380  0.0928 -0.0831  0.1854
  980POPE   D2A10939   0.856  14.931   3.732 -0.1123  0.4296 -0.0722
  980POPE   C3A10940   1.193  15.098   3.969 -0.2387  0.0556 -0.2962
  980POPE   C4A10941   1.280  15.195   4.369  0.0740  0.1981 -0.1030
  980POPE   C1B10942   0.273  15.076   3.434  0.1136 -0.0216  0.2235
  980POPE   C2B10943   0.411  14.840   3.794 -0.1591 -0.1026 -0.0066
  980POPE   C3B10944   0.418  14.582   4.173 -0.1213 -0.1409  0.1195
  980POPE   C4B10945   0.270  14.329   4.449  0.1560  0.0859  0.1889
  981POPS   CNO10946  15.839  15.057   2.116  0.0388  0.2042  0.0695
  981POPS   PO410947  15.801  15.177   2.536  0.0009  0.0791 -0.0060
  981POPS   GL110948  15.808  15.002   2.850  0.0198 -0.3166  0.0247
  981POPS   GL210949  15.513  14.888   2.964 -0.2135 -0.2705  0.0160
  981POPS   C1A10950  15.666  15.171   3.339 -0.1222 -0.0563  0.1019
  981POPS   D2A10951  15.583  15.296   3.886 -0.3385  0.1375 -0.0832
  981POPS   C3A10952  15.705  15.176   4.384  0.1991  0.1876  0.1486
  981POPS   C4A10953  16.009  15.181   4.586 -0.2899 -0.0209  0.0639
  981POPS   C1B10954  15.213  14.942   3.248  0.0804 -0.2741 -0.2137
  981POPS   C2B10955  15.108  14.913   3.621 -0.0038  0.1180  0.1170
  981POPS   C3B10956  15.100  14.960   4.063  0.0483  0.3353  0.1767
  981POPS   C4B10957  15.152  15.160   4.529 -0.2098  0.0993 -0.0136
  982POPC   NC310958  14.671  15.986   1.914 -0.0858 -0.2568  0.1229
  982POPC   PO410959  14.379  15.922   2.261 -0.0131 -0.0354 -0.4343
  982POPC   GL110960  14.374  15.795   2.685 -0.2965  0.5222 -0.0100
  982POPC   GL210961  14.371  16.005   2.919  0.0483  0.1486  0.1585
  982POPC   C1A10962  14.418  15.489   2.942 -0.0701  0.2788 -0.0660
  982POPC   D2A10963  14.694  15.149   3.069  0.0755 -0.3301  0.1254
  982POPC   C3A10964  14.645  15.135   3.513 -0.0677  0.0432  0.0479
  982POPC   C4A10965  14.686  15.256   3.983  0.3111  0.0728 -0.1034
  982POPC   C1B10966  14.260  16.038   3.261  0.0048 -0.4707 -0.2688
  982POPC   C2B10967  14.214  16.181   3.687  0.3206  0.1299 -0.1979
  982POPC   C3B10968  14.163  16.242   4.170  0.0150 -0.0702 -0.0622
  982POPC   C4B10969  14.250  16.280   4.630  0.1619  0.0192 -0.2449
  983POPE   NH310970   0.706   1.305   2.422 -0.1120 -0.0066 -0.1169
  983POPE   PO410971   0.367   1.022   2.323  0.1661 -0.1351  0.1026
  983POPE   GL110972   0.327   1.000   2.693  0.0226  0.1468 -0.1143
  983POPE   GL210973   0.640   1.095   2.871  0.3092  0.0873 -0.0508
  983POPE   C1A10974   0.122   1.062   2.998 -0.0675  0.3602  0.1365
  983POPE   D2A10975  -0.066   0.808   3.244 -0.3699 -0.0387  0.0685
  983POPE   C3A10976  -0.154   0.685   3.701  0.0365  0.2276 -0.1724
  983POPE   C4A10977  -0.384   0.573   4.077 -0.2504  0.1062  0.0381
  983POPE   C1B10978   0.875   1.060   3.244  0.0389 -0.0737 -0.1097
  983POPE   C2B10979   0.861   1.176   3.677 -0.1588 -0.1411  0.0292
  983POPE   C3B10980   0.686   1.082   4.026  0.3232  0.1739 -0.0990
  983POPE   C4B10981   0.329   1.039   4.399 -0.1168  0.0577 -0.2249
  984POPE   NH310982  14.513   2.540   2.639 -0.0085  0.2695  0.1084
  984POPE   PO410983  14.381   2.186   2.775  0.0993  0.0092  0.1096
  984POPE   GL110984  14.800   2.255   3.024 -0.2765  0.0507  0.2517
  984POPE   GL210985  15.076   2.265   2.821 -0.4839 -0.2305 -0.0805
  984POPE   C1A10986  14.935   2.338   3.406 -0.0406 -0.0283  0.0484
  984POPE   D2A10987  15.212   2.068   3.682 -0.1272  0.2448 -0.1131
  984POPE   C3A10988  14.977   1.948   3.991  0.2716 -0.2460 -0.1769
  984POPE   C4A10989  14.873   1.887   4.477  0.0130 -0.2501  0.2183
  984POPE   C1B10990  15.264   2.074   3.165 -0.0029  0.0458 -0.0888
  984POPE   C2B10991  15.522   1.849   3.325 -0.0437  0.2237 -0.2292
  984POPE   C3B10992  15.653   1.840   3.714  0.0052 -0.2577 -0.1187
  984POPE   C4B10993  15.393   1.938   4.174 -0.0809 -0.4804 -0.0309
  985POSM   NC310994   2.313  16.214   2.310 -0.0940 -0.0331 -0.1824
  985POSM   PO410995   2.213  15.723   2.306 -0.2889 -0.0197  0.0073
  985POSM   AM110996   2.473  15.943   2.713  0.1900  0.0583 -0.1520
  985POSM   AM210997   2.649  16.200   2.804 -0.3319 -0.1768 -0.1801
  985POSM   T1A10998   2.640  15.725   3.097 -0.1050  0.0210  0.0494
  985POSM   C2A10999   3.005  15.630   3.392  0.0044 -0.1163 -0.1314
  985POSM   C3A11000   2.956  15.363   3.809 -0.1917 -0.3027  0.0586
  985POSM   C1B11001   2.496  16.400   3.117 -0.1409  0.0223  0.2322
  985POSM   D2B11002   2.424  16.541   3.628 -0.4265 -0.0951  0.0373
  985POSM   C3B11003   2.321  16.199   4.020 -0.2879  0.1315  0.1457
  985POSM   C4B11004   2.110  15.668   4.021 -0.0275  0.0358 -0.3183
  986POPS   CNO11005  15.120  15.583   1.909 -0.1713 -0.0748 -0.0672
  986POPS   PO411006  15.482  15.394   2.217  0.0983 -0.0533  0.1151
  986POPS   GL111007  15.384  15.425   2.581 -0.0548  0.1686  0.1690
  986POPS   GL211008  15.419  15.746   2.651 -0.3768 -0.3484 -0.2790
  986POPS   C1A11009  15.313  15.390   2.999 -0.0821  0.0026 -0.2530
  986POPS   D2A11010  15.268  15.433   3.476 -0.1058 -0.0655  0.2888
  986POPS   C3A11011  15.144  15.429   3.883 -0.0500 -0.0964 -0.4840
  986POPS   C4A11012  14.938  15.555   4.252  0.1513 -0.1377  0.3336
  986POPS   C1B11013  15.322  15.832   3.112 -0.1858  0.0887 -0.1987
  986POPS   C2B11014  15.133  15.933   3.602 -0.1765 -0.1819  0.1899
  986POPS   C3B11015  15.122  16.068   4.087 -0.0255 -0.0793 -0.1257
  986POPS   C4B11016  15.115  16.231   4.569  0.0579  0.1012  0.3205
  987POPE   NH311017   1.928   0.489   2.457  0.3043 -0.2992  0.0625
  987POPE   PO411018   1.982   0.058   2.295 -0.0564  0.1301  0.0666
  987POPE   GL111019   1.747  -0.208   2.566 -0.2335  0.2503  0.0274
  987POPE   GL211020   1.950  -0.491   2.660 -0.4952 -0.1170  0.1911
  987POPE   C1A11021   1.411  -0.243   2.957  0.1778  0.7375  0.3969
  987POPE   D2A11022   1.234  -0.194   3.327  0.0745  0.2137  0.1233
  987POPE   C3A11023   1.355  -0.520   3.719  0.1550  0.2687 -0.2439
  987POPE   C4A11024   1.376  -0.821   4.082 -0.2485 -0.0963  0.1620
  987POPE   C1B11025   2.166  -0.594   3.089  0.4457  0.0308 -0.0362
  987POPE   C2B11026   2.370  -0.711   3.443 -0.0746  0.0952 -0.0843
  987POPE   C3B11027   2.574  -0.950   3.856  0.1580  0.0298 -0.1065
  987POPE   C4B11028   2.723  -0.850   4.204 -0.2883  0.0980  0.1398
  988POPE   NH311029  16.132  14.737   2.486 -0.0105 -0.2085 -0.3546
  988POPE   PO411030  16.148  14.237   2.304  0.0023 -0.0236  0.1141
  988POPE   GL111031  16.146  14.192   2.722  0.0171  0.0301  0.0545
  988POPE   GL211032  15.861  14.050   2.927 -0.2974 -0.0449  0.1008
  988POPE   C1A11033  16.352  14.215   3.061 -0.0762  0.0616  0.1919
  988POPE   D2A11034  16.571  14.392   3.460 -0.0881 -0.0416 -0.1477
  988POPE   C3A11035  16.589  14.685   3.629  0.3449  0.3066  0.3173
  988POPE   C4A11036  16.462  15.043   3.796 -0.0481 -0.2756  0.0079
  988POPE   C1B11037  15.863  14.198   3.322 -0.5201  0.0849 -0.1405
  988POPE   C2B11038  15.641  14.080   3.729  0.0369 -0.1100 -0.2169
  988POPE   C3B11039  15.600  14.145   4.169  0.1775 -0.0355  0.0300
  988POPE   C4B11040  15.432  13.944   4.523  0.1695 -0.0095  0.3909
  989CHOL   ROH11041  14.894  15.588   2.875 -0.3272  0.0873 -0.1620
  989CHOL    R111042  14.856  15.595   3.155 -0.1050 -0.0302 -0.1271
  989CHOL    R211043  14.722  15.801   3.282  0.0061 -0.0783  0.0667
  989CHOL    R311044  14.573  15.598   3.384  0.0748 -0.1119  0.1021
  989CHOL    R411045  14.535  15.819   3.572 -0.2491  0.0205 -0.1008
  989CHOL    R511046  14.600  15.617   3.621 -0.1335  0.1022  0.1149
  989CHOL    C111047  14.286  15.639   3.836 -0.3332  0.0464 -0.1651
  989CHOL    C211048  14.167  15.659   4.196  0.3254 -0.3630 -0.3239
  990CHOL   ROH11049   2.156   0.005   2.784  0.0169  0.0163  0.0608
  990CHOL    R111050   2.020   0.006   3.032 -0.0762  0.0102  0.0098
  990CHOL    R211051   1.849  -0.196   3.109  0.0580 -0.0948  0.0270
  990CHOL    R311052   2.009  -0.204   3.329 -0.0173  0.1224  0.0935
  990CHOL    R411053   1.743  -0.137   3.433 -0.1185 -0.0423 -0.0388
  990CHOL    R511054   1.928  -0.027   3.468 -0.2140  0.1212 -0.0127
  990CHOL    C111055   1.831  -0.111   3.827 -0.2919  0.1920 -0.0145
  990CHOL    C211056   1.862   0.066   4.004 -0.2658  0.1287 -0.2794
  991CHOL   ROH11057  16.410   0.559   2.541  0.0928 -0.0243 -0.0297
  991CHOL    R111058  16.586   0.642   2.747  0.0260 -0.1036  0.0604
  991CHOL    R211059  16.655   0.479   2.959  0.0448 -0.2269 -0.0359
  991CHOL    R311060  16.908   0.537   2.879  0.0380 -0.0832  0.0454
  991CHOL    R411061  16.929   0.502   3.168 -0.0112 -0.1751  0.0319
  991CHOL    R511062  16.997   0.674   3.053 -0.0629 -0.1062  0.1112
  991CHOL    C111063  17.327   0.570   3.214 -0.0502 -0.0099  0.1477
  991CHOL    C211064  17.373   0.606   3.557 -0.2376  0.0847 -0.0649
  992POPS   CNO11065  15.441   2.252   2.411 -0.1417  0.2560 -0.2725
  992POPS   PO411066  15.857   2.101   2.271  0.4182  0.0039  0.1775
  992POPS   GL111067  15.753   1.738   2.568  0.1462 -0.5190  0.0583
  992POPS   GL211068  15.706   1.948   2.856  0.1106  0.1501 -0.1337
  992POPS   C1A11069  15.620   1.496   2.843 -0.2336  0.1113 -0.1088
  992POPS   D2A11070  15.679   1.380   3.203  0.0313 -0.0476 -0.0127
  992POPS   C3A11071  15.431   1.064   3.420 -0.1079  0.1152 -0.0144
  992POPS   C4A11072  15.322   0.951   3.812  0.1800 -0.2521  0.1527
  992POPS   C1B11073  15.968   2.130   3.197  0.4387  0.1021  0.0296
  992POPS   C2B11074  16.115   2.125   3.639 -0.2825  0.1382 -0.2299
  992POPS   C3B11075  16.422   2.056   4.008  0.2284 -0.3382 -0.0330
  992POPS   C4B11076  16.953   2.097   4.066 -0.1793 -0.1397 -0.0621
  993POPS   CNO11077   0.904  15.659   1.978 -0.2182  0.3132  0.1944
  993POPS   PO411078   1.307  15.733   2.222  0.1328 -0.2323 -0.0635
  993POPS   GL111079   1.445  15.947   2.591  0.1893 -0.1691  0.0356
  993POPS   GL211080   1.259  15.854   2.866  0.3079 -0.3454  0.2257
  993POPS   C1A11081   1.716  15.909   2.995  0.4001  0.0132  0.2114
  993POPS   D2A11082   1.750  15.984   3.355 -0.1932  0.0542  0.1737
  993POPS   C3A11083   1.945  15.990   3.695 -0.1701  0.0273  0.0768
  993POPS   C4A11084   1.764  16.084   4.123  0.2341 -0.2758 -0.2153
  993POPS   C1B11085   1.298  15.776   3.332  0.1106 -0.1905  0.2156
  993POPS   C2B11086   1.128  15.588   3.663  0.1725 -0.2254 -0.1008
  993POPS   C3B11087   0.951  15.482   4.119  0.0038  0.0968  0.2687
  993POPS   C4B11088   0.708  15.083   4.182 -0.0818  0.3569  0.1379
  994POPC   NC311089  14.577   1.223   2.604  0.0227  0.3369  0.0837
  994POPC   PO411090  14.446   0.822   2.639 -0.3307 -0.4703  0.1751
  994POPC   GL111091  14.375   1.038   3.057  0.1312 -0.0284 -0.0280
  994POPC   GL211092  14.663   1.298   3.129  0.3434  0.1156  0.0393
  994POPC   C1A11093  14.197   0.899   3.529  0.1212 -0.1315  0.1045
  994POPC   D2A11094  14.016   0.676   3.691 -0.1449  0.0199 -0.4307
  994POPC   C3A11095  14.198   0.681   3.983 -0.0560  0.2910 -0.0731
  994POPC   C4A11096  14.475   0.605   4.217  0.0214  0.1478 -0.0812
  994POPC   C1B11097  14.368   1.340   3.447  0.1262 -0.3012 -0.0926
  994POPC   C2B11098  14.343   1.557   3.912 -0.5696  0.0858 -0.2216
  994POPC   C3B11099  14.120   1.509   4.272  0.2448 -0.0071 -0.3087
  994POPC   C4B11100  13.809   1.358   4.564  0.3217 -0.2480 -0.0113
  995CHOL   ROH11101  15.865  15.546   2.862 -0.0950  0.1004 -0.0670
  995CHOL    R111102  15.892  15.583   3.141 -0.1736 -0.1118 -0.0304
  995CHOL    R211103  15.842  15.825   3.265  0.0714 -0.1244  0.0989
  995CHOL    R311104  15.675  15.675   3.419 -0.1873 -0.0173 -0.0707
  995CHOL    R411105  15.741  15.906   3.586  0.1202 -0.2534  0.1479
  995CHOL    R511106  15.762  15.696   3.641 -0.2004 -0.3393 -0.0296
  995CHOL    C111107  15.526  15.813   3.916 -0.0943 -0.2280  0.0173
  995CHOL    C211108  15.485  15.707   4.198  0.0279 -0.1315  0.0243
  996POPE   NH311109   0.218  15.319   2.513  0.1518  0.3509  0.0810
  996POPE   PO411110   0.235  15.645   2.623 -0.1461  0.0042  0.0205
  996POPE   GL111111   0.352  15.678   2.998  0.0445  0.0901  0.0076
  996POPE   GL211112   0.655  15.738   2.891 -0.1486  0.0232 -0.1613
  996POPE   C1A11113   0.487  15.585   3.382  0.0559 -0.0253  0.2704
  996POPE   D2A11114   0.582  15.412   3.805 -0.2755  0.1632 -0.0339
  996POPE   C3A11115   0.430  15.508   4.199 -0.1895  0.1047 -0.0877
  996POPE   C4A11116   0.455  15.593   4.676 -0.0228  0.1326 -0.0114
  996POPE   C1B11117   0.919  15.519   3.131 -0.2146  0.3977 -0.0589
  996POPE   C2B11118   1.265  15.245   3.197  0.3517 -0.2257 -0.3164
  996POPE   C3B11119   1.402  15.137   3.572  0.1761 -0.0746  0.0670
  996POPE   C4B11120   1.767  15.079   3.607 -0.0716  0.0545 -0.2558
  997POPE   NH311121   1.313   1.022   2.489  0.3514  0.0851 -0.0300
  997POPE   PO411122   0.985   0.863   2.491  0.0854 -0.0425 -0.1036
  997POPE   GL111123   1.007   0.769   2.847  0.1663  0.1599  0.1052
  997POPE   GL211124   0.958   0.381   2.746  0.0772  0.0389  0.1823
  997POPE   C1A11125   1.241   0.699   3.187  0.1319 -0.2688  0.1818
  997POPE   D2A11126   1.206   0.768   3.667 -0.1031 -0.1914 -0.0659
  997POPE   C3A11127   0.950   0.618   4.049 -0.0694 -0.0015 -0.1683
  997POPE   C4A11128   0.795   0.204   3.984  0.1318  0.1774  0.0963
  997POPE   C1B11129   1.154   0.230   3.005 -0.0240  0.1394 -0.2910
  997POPE   C2B11130   1.143   0.250   3.506 -0.1923  0.1050  0.0041
  997POPE   C3B11131   1.245  -0.047   3.871 -0.2226  0.1304  0.1976
  997POPE   C4B11132   1.179  -0.388   4.216  0.3048 -0.1237  0.2900
  998CHOL   ROH11133  14.861   0.826   2.911 -0.0852  0.0252 -0.0318
  998CHOL    R111134  14.874   0.802   3.193 -0.0211  0.0453 -0.0319
  998CHOL    R211135  14.926   1.017   3.360  0.0942  0.0445 -0.0618
  998CHOL    R311136  14.694   0.939   3.478  0.0972  0.1315  0.0008
  998CHOL    R411137  14.825   1.105   3.678  0.2975 -0.0755  0.0375
  998CHOL    R511138  14.752   0.903   3.707  0.1765 -0.0413 -0.0467
  998CHOL    C111139  14.549   1.083   3.975  0.4188 -0.0637  0.1540
  998CHOL    C211140  14.788   0.988   4.320  0.1310  0.2044  0.1215
  999POPS   CNO11141   0.373  14.671   2.663 -0.3032  0.1673 -0.2838
  999POPS   PO411142   0.019  14.865   2.611  0.0814  0.0244 -0.1522
  999POPS   GL111143  -0.160  14.679   2.981 -0.2541 -0.2932  0.0657
  999POPS   GL211144  -0.502  14.687   3.096  0.1349  0.0779 -0.0220
  999POPS   C1A11145  -0.202  15.017   3.282  0.1275  0.1051  0.1909
  999POPS   D2A11146  -0.460  15.373   3.478 -0.0297  0.1809 -0.0132
  999POPS   C3A11147  -0.470  15.486   4.000 -0.0379 -0.0983 -0.1250
  999POPS   C4A11148  -0.675  15.671   4.405 -0.1431  0.1168 -0.3251
  999POPS   C1B11149  -0.451  14.595   3.455  0.0548  0.0043  0.0044
  999POPS   C2B11150  -0.598  14.481   3.834 -0.0114 -0.0600  0.0661
  999POPS   C3B11151  -0.502  14.782   4.142 -0.1392 -0.0116  0.1987
  999POPS   C4B11152  -0.324  15.058   4.222 -0.1713 -0.2099 -0.1041
 1000POPE   NH311153  14.817  16.171   2.462  0.1253 -0.3816  0.3294
 1000POPE   PO411154  14.837  16.621   2.589 -0.1879  0.0289 -0.3482
 1000POPE   GL111155  14.746  16.399   2.916 -0.0460 -0.1217 -0.2370
 1000POPE   GL211156  14.898  16.113   2.962  0.2770  0.0972  0.3388
 1000POPE   C1A11157  14.764  16.266   3.418 -0.0503 -0.2217 -0.0544
 1000POPE   D2A11158  14.688  16.238   3.801  0.1773  0.0516  0.1086
 1000POPE   C3A11159  14.608  15.983   4.042 -0.2839  0.0334  0.1986
 1000POPE   C4A11160  14.538  15.841   4.448 -0.1711  0.1762  0.1422
 1000POPE   C1B11161  15.245  16.329   3.152 -0.1600 -0.0233 -0.1768
 1000POPE   C2B11162  15.463  16.282   3.459  0.2835 -0.0540 -0.0882
 1000POPE   C3B11163  15.502  16.350   3.855 -0.1596  0.1308 -0.0212
 1000POPE   C4B11164  15.542  16.162   4.295  0.2416  0.1199 -0.1675
 1001CHOL   ROH11165  16.107   0.217   2.489 -0.2505 -0.1235 -0.1024
 1001CHOL    R111166  16.217   0.218   2.750 -0.1637 -0.0702 -0.1377
 1001CHOL    R211167  16.188   0.432   2.923 -0.0987 -0.0266 -0.1717
 1001CHOL    R311168  16.089   0.242   3.090 -0.0542  0.0109 -0.1037
 1001CHOL    R411169  16.248   0.418   3.263  0.0870 -0.0352 -0.2040
 1001CHOL    R511170  16.267   0.201   3.246  0.0165 -0.0348 -0.2027
 1001CHOL    C111171  16.190   0.231   3.618  0.2369 -0.0050 -0.1590
 1001CHOL    C211172  16.440   0.141   3.874  0.0710 -0.0055  0.3081
 1002POPS   CNO11173  16.124   0.874   2.115  0.3577  0.1517  0.0073
 1002POPS   PO411174  15.822   0.534   2.162  0.1197  0.2445  0.0638
 1002POPS   GL111175  15.748   0.708   2.577 -0.0546 -0.1228  0.2873
 1002POPS   GL211176  15.725   0.555   2.846  0.1655 -0.1954 -0.0917
 1002POPS   C1A11177  15.918   0.999   2.921 -0.3502 -0.2336 -0.0237
 1002POPS   D2A11178  16.080   1.011   3.384 -0.1099 -0.1199 -0.2590
 1002POPS   C3A11179  15.774   1.267   3.694 -0.2782  0.1593 -0.0976
 1002POPS   C4A11180  15.844   1.586   4.163 -0.1140  0.2331  0.0853
 1002POPS   C1B11181  15.746   0.588   3.286  0.2580  0.0795  0.0098
 1002POPS   C2B11182  15.903   0.691   3.704  0.0579  0.0476 -0.0562
 1002POPS   C3B11183  15.747   0.961   4.115 -0.1016 -0.1645 -0.0468
 1002POPS   C4B11184  15.740   0.815   4.472 -0.0797 -0.1258 -0.0654
 1003POSM   NC311185   1.787  16.464   1.818  0.1590  0.0913 -0.1235
 1003POSM   PO411186   1.479  16.740   2.063  0.1198  0.0831  0.2261
 1003POSM   AM111187   1.373  16.715   2.505 -0.4323 -0.0312  0.0229
 1003POSM   AM211188   1.170  16.500   2.513 -0.3610 -0.0260 -0.3772
 1003POSM   T1A11189   1.632  16.840   2.873  0.0579  0.1256  0.0453
 1003POSM   C2A11190   1.698  16.917   3.244 -0.0238  0.1517  0.0935
 1003POSM   C3A11191   1.603  16.889   3.631 -0.1120  0.2258 -0.0348
 1003POSM   C1B11192   0.908  16.345   2.864  0.2267 -0.2789 -0.0702
 1003POSM   D2B11193   0.826  16.091   3.177  0.1226  0.0665  0.2605
 1003POSM   C3B11194   0.843  16.013   3.540 -0.0717 -0.1421 -0.0943
 1003POSM   C4B11195   0.803  16.205   3.884 -0.0557 -0.3655 -0.1504
 1004CHOL   ROH11196  14.816   0.350   3.015 -0.0074  0.1782  0.0184
 1004CHOL    R111197  14.881   0.150   3.205 -0.1295  0.1063 -0.0131
 1004CHOL    R211198  15.106   0.165   3.366 -0.0625 -0.1056 -0.0760
 1004CHOL    R311199  14.925   0.134   3.566 -0.0369  0.0493 -0.0280
 1004CHOL    R411200  15.185   0.098   3.696 -0.0423 -0.1604 -0.0924
 1004CHOL    R511201  15.017  -0.040   3.703 -0.1502 -0.0192 -0.0446
 1004CHOL    C111202  15.061   0.029   4.075 -0.0064 -0.0471 -0.0569
 1004CHOL    C211203  15.356   0.024   4.225 -0.2745 -0.2811  0.0495
 1005CHOL   ROH11204   0.497  16.173   2.667 -0.4220  0.2252  0.0363
 1005CHOL    R111205   0.385  16.266   2.909 -0.1797  0.1237  0.1913
 1005CHOL    R211206   0.195  16.122   3.050 -0.1374  0.1230  0.2519
 1005CHOL    R311207   0.371  16.153   3.255  0.0458 -0.0982  0.1319
 1005CHOL    R411208   0.155  15.988   3.366 -0.1420  0.2516  0.3062
 1005CHOL    R511209   0.233  16.174   3.449  0.1983  0.1577  0.2169
 1005CHOL    C111210   0.297  15.939   3.742  0.0274  0.1187  0.2251
 1005CHOL    C211211   0.343  15.997   4.082  0.0125 -0.3064 -0.4235
 1006POPS   CNO11212  14.541  16.446   2.137 -0.0841 -0.1734  0.2963
 1006POPS   PO411213  14.503  16.905   2.192  0.2895 -0.0044  0.3776
 1006POPS   GL111214  14.420  16.841   2.608  0.2130 -0.1724 -0.1998
 1006POPS   GL211215  14.370  17.064   2.926 -0.1839 -0.0976  0.0884
 1006POPS   C1A11216  14.359  16.587   3.075  0.2671 -0.1483  0.2597
 1006POPS   D2A11217  14.405  16.582   3.476 -0.2163 -0.1697  0.0600
 1006POPS   C3A11218  14.135  16.748   3.758  0.0182  0.1987  0.0146
 1006POPS   C4A11219  14.067  16.860   4.231  0.0818  0.1308  0.3303
 1006POPS   C1B11220  14.467  17.108   3.393  0.1777  0.1059  0.1654
 1006POPS   C2B11221  14.533  17.037   3.741 -0.0731 -0.0959 -0.1793
 1006POPS   C3B11222  14.570  16.700   3.965 -0.0182 -0.1303 -0.4305
 1006POPS   C4B11223  14.634  16.445   4.329  0.1008 -0.3160 -0.1478
 1007POPS   CNO11224   0.005  16.048   2.506  0.1055  0.0873 -0.3006
 1007POPS   PO411225  -0.277  15.656   2.632 -0.1091 -0.2921 -0.2467
 1007POPS   GL111226  -0.220  15.613   3.076  0.0037 -0.0910  0.0878
 1007POPS   GL211227  -0.235  15.934   3.018 -0.0991 -0.0831 -0.0578
 1007POPS   C1A11228   0.042  15.482   3.369 -0.0702 -0.1873  0.1696
 1007POPS   D2A11229   0.096  15.488   3.800  0.0803  0.1609 -0.1502
 1007POPS   C3A11230  -0.094  15.784   4.113  0.2134  0.2596  0.1672
 1007POPS   C4A11231   0.059  15.866   4.432  0.5087 -0.3954  0.0366
 1007POPS   C1B11232  -0.309  15.855   3.548 -0.0396 -0.1535 -0.0267
 1007POPS   C2B11233  -0.508  15.991   3.959  0.1310  0.1385  0.0581
 1007POPS   C3B11234  -0.410  16.123   4.417  0.1831 -0.0588  0.1082
 1007POPS   C4B11235  -0.380  15.891   4.768 -0.0122 -0.0062  0.0748
 1008POPC   NC311236   0.331  16.387   2.246  0.0992 -0.0732 -0.0866
 1008POPC   PO411237   0.693  16.609   2.322 -0.1896 -0.0755 -0.0372
 1008POPC   GL111238   0.485  16.683   2.706  0.2949 -0.2763  0.1247
 1008POPC   GL211239   0.158  16.584   2.667 -0.1532 -0.2219 -0.0397
 1008POPC   C1A11240   0.669  16.669   3.113 -0.2077  0.2253 -0.0087
 1008POPC   D2A11241   0.701  16.680   3.511  0.0002  0.0044 -0.2032
 1008POPC   C3A11242   0.398  16.438   3.839  0.0444  0.2698  0.4024
 1008POPC   C4A11243   0.279  16.711   4.162  0.2122  0.1983 -0.1327
 1008POPC   C1B11244   0.113  16.620   3.160 -0.2137 -0.1417  0.0368
 1008POPC   C2B11245   0.110  16.777   3.459  0.0597  0.2983 -0.2173
 1008POPC   C3B11246   0.387  17.017   3.705  0.3120 -0.2888  0.1150
 1008POPC   C4B11247   0.227  17.467   3.943 -0.1730 -0.0320 -0.0592
 1009POSM   NC311248  15.493   0.911   2.224  0.0443 -0.0393 -0.0590
 1009POSM   PO411249  15.283   0.550   2.315 -0.0430 -0.0354 -0.3307
 1009POSM   AM111250  15.282   0.403   2.714 -0.1730  0.4029 -0.4761
 1009POSM   AM211251  15.254   0.104   2.868 -0.1462 -0.3770 -0.0724
 1009POSM   T1A11252  15.302   0.621   3.109 -0.2886  0.1711  0.0511
 1009POSM   C2A11253  15.184   0.603   3.526 -0.3451 -0.2421 -0.0848
 1009POSM   C3A11254  14.988   0.515   3.882  0.0971 -0.1872  0.1354
 1009POSM   C1B11255  15.548   0.165   3.212  0.2520  0.0379  0.0771
 1009POSM   D2B11256  15.687   0.152   3.595 -0.1026 -0.0369  0.1867
 1009POSM   C3B11257  15.469   0.409   3.876 -0.0606 -0.1023 -0.0758
 1009POSM   C4B11258  15.718   0.367   4.208 -0.4250  0.1419 -0.2298
 1010POPC   NC311259  15.900  16.101   1.685  0.0663 -0.1454  0.1833
 1010POPC   PO411260  16.137  16.006   2.121 -0.1938  0.4159  0.3478
 1010POPC   GL111261  16.065  16.148   2.545  0.3829 -0.1951 -0.0950
 1010POPC   GL211262  15.897  16.095   2.804 -0.0371 -0.2043  0.1508
 1010POPC   C1A11263  16.332  16.389   2.848  0.0115  0.1623  0.0899
 1010POPC   D2A11264  16.361  16.304   3.309  0.3134 -0.1418  0.3152
 1010POPC   C3A11265  16.474  16.264   3.746 -0.0689  0.1266  0.0632
 1010POPC   C4A11266  16.514  16.299   4.118 -0.0748  0.0142 -0.0524
 1010POPC   C1B11267  15.884  16.339   3.139  0.0630 -0.0659 -0.0459
 1010POPC   C2B11268  15.982  16.375   3.639 -0.2015  0.2036 -0.1463
 1010POPC   C3B11269  15.960  16.566   3.982  0.1084 -0.3197  0.2365
 1010POPC   C4B11270  15.838  16.555   4.466  0.0116 -0.0038  0.0714
 1011W        W11271  15.188   4.990   7.275 -0.1217 -0.0439  0.1225
 1012W        W11272   4.490   6.368   7.364 -0.2079  0.2107 -0.1555
 1013W        W11273   8.227   2.362   7.219 -0.0203 -0.1088 -0.3495
 1014W        W11274   5.526   5.255   8.383  0.2204  0.0571  0.2472
 1015W        W11275  15.029  14.708   8.442  0.1181 -0.1525 -0.0462
 1016W        W11276  15.783   2.527   7.174  0.0098 -0.0354 -0.2185
 1017W        W11277   2.252   3.685   1.436  0.1027 -0.1750  0.1673
 1018W        W11278   8.415   3.381   1.799 -0.2905  0.3408  0.3859
 1019W        W11279  14.658   1.727   2.800 -0.0907 -0.0392 -0.0192
 1020W        W11280   2.537   9.142   1.259  0.0336 -0.2646  0.1410
 1021W        W11281   2.385  14.702   2.353 -0.1646  0.0798 -0.0506
 1022W        W11282  13.988   3.820   7.958 -0.2887 -0.0250 -0.0825
 1023W        W11283   0.481  13.008   0.871  0.0369  0.1188  0.2792
 1024W        W11284   0.700   3.166   1.086 -0.0044 -0.4010 -0.0541
 1025W        W11285   0.049  15.190   6.577 -0.1731  0.1010 -0.0476
 1026W        W11286   2.752   8.000   1.973  0.3226  0.2187  0.0406
 1027W        W11287   6.289   6.271   0.656 -0.0861  0.1807 -0.1686
 1028W        W11288   1.000   3.658   0.919  0.0954  0.5490 -0.1657
 1029W        W11289   0.558  15.417   7.009  0.1465 -0.2000 -0.0544
 1030W        W11290   1.196   2.302   1.329  0.0964  0.0759 -0.2198
 1031W        W11291   6.401   5.829   6.984 -0.2812 -0.1108  0.1423
 1032W        W11292   8.376  12.482   0.587 -0.2217  0.1940 -0.0081
 1033W        W11293   4.559   9.898   8.620 -0.4448 -0.0517 -0.3299
 1034W        W11294   0.245  14.521   8.343 -0.1615 -0.2266 -0.0900
 1035W        W11295   1.683  14.576   0.658  0.1962  0.2221  0.0329
 1036W        W11296  15.760  12.836   7.447  0.0679  0.1503 -0.1409
 1037W        W11297   3.895   0.753   0.619 -0.0775  0.0505  0.2215
 1038W        W11298   3.853  13.362   6.905 -0.0206 -0.0702  0.1603
 1039W        W11299   4.009   1.353   7.357 -0.1291  0.0741  0.1656
 1040W        W11300   0.242   6.328   0.470  0.1318  0.3844 -0.0490
 1041W        W11301   0.586   8.474   0.442 -0.1458  0.0102 -0.0166
 1042W        W11302   1.583   6.159   7.950 -0.1616  0.0255 -0.2340
 1043W        W11303  16.165   1.365   8.551  0.0516 -0.0907  0.4946
 1044W        W11304  16.444  16.564   0.814 -0.2762 -0.2615 -0.1299
 1045W        W11305  11.562  16.067   0.619  0.2416 -0.2090  0.2803
 1046W        W11306   3.271   6.396   2.867  0.0770  0.1097  0.0738
 1047W        W11307   1.418   4.928   1.781  0.0214  0.3280  0.2657
 1048W        W11308   2.709  13.024   7.463  0.1445 -0.1364  0.0904
 1049W        W11309  11.035   7.276   7.113 -0.1164 -0.2338  0.2452
 1050W        W11310  14.077   1.991   0.593  0.1247 -0.1235 -0.1443
 1051W        W11311   2.122   2.123   6.982  0.1817 -0.1751  0.0842
 1052W        W11312  14.816   6.117   1.605  0.1935 -0.2791 -0.0472
 1053W        W11313   0.066  14.653   0.608  0.3306 -0.1048  0.2835
 1054W        W11314  14.178   7.762   0.663  0.3127 -0.0367  0.1256
 1055W        W11315   5.456   0.915   6.244  0.0816 -0.2320 -0.0650
 1056W        W11316   5.358   3.936   7.380 -0.0737  0.0186  0.1856
 1057W        W11317  15.781   0.823   7.890 -0.1704  0.1031 -0.3906
 1058W        W11318   6.597  16.120   8.340 -0.2201  0.3521  0.0131
 1059W        W11319   1.474   3.774   1.144 -0.1683 -0.0128 -0.2963
 1060W        W11320   2.506   1.445   7.531 -0.0098  0.1434 -0.1361
 1061W        W11321   4.280  14.280   6.779  0.3079  0.3205  0.1509
 1062W        W11322  11.058  15.230   7.992 -0.0602  0.1233 -0.0195
 1063W        W11323   2.426   6.027   1.087 -0.0715  0.0861  0.1051
 1064W        W11324  15.344   9.057   1.197  0.1612  0.1067 -0.3110
 1065W        W11325  14.888  14.714   2.056 -0.2187 -0.2601 -0.0569
 1066W        W11326   3.825  15.621   0.294 -0.0618 -0.0781 -0.2352
 1067W        W11327   0.503   2.474   7.834  0.0146 -0.0178 -0.1257
 1068W        W11328   1.129  16.567   1.760  0.0227 -0.1467 -0.2262
 1069W        W11329   3.901  14.674   0.666 -0.2549  0.1203 -0.3086
 1070W        W11330   2.594   4.511   8.315 -0.0364 -0.1629 -0.0211
 1071W        W11331  13.246   7.838   8.467  0.2865 -0.0860  0.1542
 1072W        W11332   1.143   5.800   0.761 -0.1148  0.1166 -0.0818
 1073W        W11333   7.272   6.254   7.412  0.1230 -0.3183  0.0464
 1074W        W11334   2.328  13.476   7.527 -0.1595 -0.0195 -0.0226
 1075W        W11335   2.422   4.252   2.206 -0.1461  0.0608 -0.0291
 1076W        W11336   5.748   1.713   0.165 -0.0747 -0.0338 -0.1036
 1077W        W11337   2.480   1.855   1.948  0.2676  0.1623 -0.1039
 1078W        W11338  15.489   2.922   8.485 -0.3571 -0.0278  0.4928
 1079W        W11339  15.091  14.651   0.259  0.3893 -0.2010 -0.2303
 1080W        W11340   4.198   3.102   8.658  0.3486 -0.1132  0.2743
 1081W        W11341  15.449   1.387   0.500  0.0165  0.0998 -0.0077
 1082W        W11342   0.376   0.920   1.808 -0.1672  0.1428  0.0525
 1083W        W11343   2.743   8.055   2.526 -0.0888  0.0903 -0.0825
 1084W        W11344   3.317  13.611   8.588  0.0582 -0.0063 -0.0376
 1085W        W11345   3.252   9.506   0.898 -0.4330  0.1685 -0.1687
 1086W        W11346   4.533   1.099   7.412  0.0700  0.1243 -0.0613
 1087W        W11347   3.499  13.893   1.829 -0.2701  0.3871  0.0101
 1088W        W11348   1.318   4.586   7.376 -0.0835 -0.2225 -0.0592
 1089W        W11349   0.353  12.047   1.138 -0.0782 -0.1691  0.0121
 1090W        W11350   3.403  14.700   7.438 -0.0842  0.1316  0.1066
 1091W        W11351   4.955   8.431   0.096  0.0023  0.0026 -0.0112
 1092W        W11352   2.263   8.285   6.412 -0.0047  0.1599 -0.0814
 1093W        W11353  16.546   4.245   0.970 -0.1139 -0.1149  0.0756
 1094W        W11354   5.156   1.448   2.444 -0.0396 -0.3463 -0.1416
 1095W        W11355   3.612  15.960   6.945  0.3500  0.0272  0.1051
 1096W        W11356  16.385   3.903   7.289 -0.4386  0.3175 -0.1130
 1097W        W11357   2.365  12.643   7.702 -0.0449  0.2055 -0.0301
 1098W        W11358   3.207   0.781   7.587 -0.0542  0.1147  0.1117
 1099W        W11359   5.476   9.421   8.134 -0.2950  0.2059 -0.1568
 1100W        W11360  14.012  15.526   7.621  0.2428 -0.1175 -0.2428
 1101W        W11361   9.407   4.067   1.191  0.0001  0.2355 -0.0102
 1102W        W11362   6.092   0.956   6.133 -0.1430  0.1455  0.1557
 1103W        W11363   3.105   1.164   6.999 -0.1129  0.0844  0.4536
 1104W        W11364   2.301   3.408   6.486 -0.1342 -0.0774 -0.0836
 1105W        W11365   8.136  11.296   7.475  0.0300 -0.1165 -0.1669
 1106W        W11366  15.133  11.184   8.101 -0.0050 -0.0813  0.2487
 1107W        W11367   8.899   0.216   7.804 -0.0404 -0.1700 -0.2811
 1108W        W11368   5.127  16.049   1.582  0.0673 -0.0851  0.0049
 1109W        W11369  11.944   5.197   7.780  0.0010 -0.0601  0.0853
 1110W        W11370   2.941   3.653   2.248  0.2967 -0.3268 -0.1448
 1111W        W11371   0.875   6.941   7.266 -0.3301  0.1752 -0.4812
 1112W        W11372  12.482   7.031   7.076 -0.0985 -0.0874 -0.2728
 1113W        W11373  14.068  16.298   0.214  0.0507 -0.0384  0.0127
 1114W        W11374   0.322   0.282   7.784 -0.1024 -0.0104 -0.0408
 1115W        W11375   0.548   2.229   8.405  0.1411 -0.1876 -0.1625
 1116W        W11376   0.560   5.187   7.379  0.0006 -0.4545 -0.0288
 1117W        W11377   1.717   1.924   8.092  0.1510 -0.1549 -0.2340
 1118W        W11378  12.627   1.969   6.872 -0.1606 -0.0490 -0.2626
 1119W        W11379   5.662  10.859   8.096  0.1465  0.1380 -0.2937
 1120W        W11380   8.825  15.577   7.164 -0.2143 -0.0271 -0.2941
 1121W        W11381   2.763  13.795   0.564 -0.3657 -0.1879 -0.4541
 1122W        W11382   2.727  14.296   1.075 -0.2495  0.0635 -0.1506
 1123W        W11383   3.721   1.794   0.869 -0.0895 -0.2098 -0.0475
 1124W        W11384  13.635   2.581   1.288  0.0385 -0.0009  0.3284
 1125W        W11385   7.495   7.516   1.621  0.0256  0.2550  0.2882
 1126W        W11386   2.639   6.107   8.040 -0.0136  0.0850 -0.2050
 1127W        W11387   0.404  13.561   1.789  0.3370 -0.1455 -0.0407
 1128W        W11388   1.927   2.059   8.634  0.1120 -0.0722 -0.1234
 1129W        W11389   1.956   0.239   1.461 -0.1364 -0.0700  0.1605
 1130W        W11390   5.220  13.445   0.308  0.3513 -0.0034 -0.3477
 1131W        W11391   7.528  13.109   0.476  0.1745 -0.0590  0.2366
 1132W        W11392   0.856   1.390   7.236 -0.0713 -0.0891  0.1892
 1133W        W11393   1.587  16.148   6.660  0.0580  0.1386 -0.1417
 1134W        W11394  15.267   0.523   6.843  0.1527  0.0179 -0.0762
 1135W        W11395  16.514  12.373   2.295  0.0124 -0.0032  0.0956
 1136W        W11396   3.487   3.931   6.825 -0.3065  0.0294 -0.2032
 1137W        W11397  14.170   3.078   0.589 -0.0993  0.1156 -0.3447
 1138W        W11398  16.316   7.965   8.552 -0.1256 -0.1517  0.1175
 1139W        W11399   1.245   8.823   7.656 -0.1543  0.4216 -0.1287
 1140W        W11400   0.066  13.038   7.026 -0.0198  0.2168 -0.2078
 1141W        W11401  14.508   7.672   1.804 -0.0565  0.0920 -0.0040
 1142W        W11402   2.932  13.847   1.076  0.2283 -0.3653 -0.1451
 1143W        W11403   4.709  15.418   8.558 -0.1716  0.0089  0.1377
 1144W        W11404   0.742   9.574   1.483 -0.0185  0.0995 -0.3839
 1145W        W11405  15.995   0.201   0.562  0.3783  0.0970 -0.2715
 1146W        W11406   7.005   1.290   1.310  0.0763  0.0127  0.1632
 1147W        W11407   4.719   3.825   8.373 -0.1181  0.1124  0.2115
 1148W        W11408   0.272   5.230   7.869  0.0615  0.2069  0.2537
 1149W        W11409   0.428   1.373   1.650 -0.1651  0.2647 -0.1336
 1150W        W11410   9.625   1.844   7.975 -0.1807 -0.1380 -0.2193
 1151W        W11411   5.296   3.778   1.447 -0.3534  0.0960 -0.1360
 1152W        W11412   5.770   0.538   6.038 -0.0180 -0.1235  0.0407
 1153W        W11413   5.174  16.133   6.672 -0.1651  0.0478 -0.3016
 1154W        W11414  15.616   4.299   7.111 -0.2878 -0.1117 -0.1750
 1155W        W11415  15.829  11.529   2.252  0.0125 -0.1244 -0.0191
 1156W        W11416   4.655   0.450   7.938 -0.0177 -0.0988 -0.0623
 1157W        W11417   2.348  14.247   1.423  0.1364  0.1445  0.0782
 1158W        W11418   0.576  14.483   0.670  0.2870 -0.0857  0.2491
 1159W        W11419   6.568   1.497   8.129  0.2238 -0.1497 -0.2608
 1160W        W11420  15.106   4.276   0.736  0.0153 -0.3182  0.1111
 1161W        W11421   3.844  15.842   7.995 -0.3363 -0.1816 -0.1456
 1162W        W11422   2.494   3.895   8.586  0.0988 -0.0436 -0.0891
 1163W        W11423   2.287   7.802   7.285 -0.1011  0.2066 -0.1099
 1164W        W11424   4.476  14.767   7.326  0.2757 -0.0937  0.1972
 1165W        W11425   5.183  15.047   0.347 -0.0787 -0.1586  0.0860
 1166W        W11426   1.486   3.009   0.027 -0.1463  0.0335 -0.0037
 1167W        W11427  15.145   1.237   1.414  0.0119 -0.0170 -0.1061
 1168W        W11428   8.768   0.398   1.488  0.1246  0.3248  0.1203
 1169W        W11429  14.905   1.553   1.004 -0.4648  0.1161 -0.1037
 1170W        W11430  15.313  15.766   7.425  0.2744  0.0314 -0.0538
 1171W        W11431  15.897  14.118   7.292 -0.3544 -0.1148  0.1325
 1172W        W11432   6.396   1.063   1.414  0.1823  0.0400 -0.2688
 1173W        W11433   6.070   3.620   0.851 -0.1480  0.0313  0.1182
 1174W        W11434   2.722   5.172   0.513 -0.0447  0.2575 -0.3129
 1175W        W11435   0.111   9.951   0.879 -0.1631 -0.3757  0.2677
 1176W        W11436   0.526  14.888   0.420  0.0548 -0.0238 -0.0173
 1177W        W11437  15.892   3.319   7.004 -0.1675 -0.1758 -0.0510
 1178W        W11438   0.849   1.504   0.705 -0.3219  0.1565  0.0723
 1179W        W11439  12.892   3.914   7.291  0.0590  0.0892  0.1648
 1180W        W11440   2.749  13.070   1.802 -0.0552  0.1835 -0.0016
 1181W        W11441  14.887   3.215   6.803 -0.1176 -0.3453 -0.0320
 1182W        W11442  16.129   7.579   2.149  0.3428 -0.1318  0.3216
 1183W        W11443  16.204   6.699   7.037 -0.1651 -0.0169 -0.2865
 1184W        W11444   2.742   2.689   8.392  0.2895  0.2038  0.0331
 1185W        W11445   6.891  14.079   1.321  0.0064  0.0162 -0.1089
 1186W        W11446  12.933   5.759   7.463  0.4036  0.0260 -0.0955
 1187W        W11447  16.423  13.544   8.268  0.2848 -0.0358  0.1675
 1188W        W11448   1.286   8.563   0.817 -0.3507 -0.0518 -0.1966
 1189W        W11449  10.147   0.105   7.578 -0.2060  0.2216 -0.0737
 1190W        W11450   0.141   1.141   7.647 -0.4172 -0.1151 -0.1014
 1191W        W11451   2.321  11.479   0.145 -0.0393  0.0956 -0.1091
 1192W        W11452   2.110   8.207   0.046 -0.3647 -0.0631 -0.0173
 1193W        W11453   6.917   7.378   2.074  0.0285  0.0962 -0.0123
 1194W        W11454  12.466  15.404   7.117  0.0074  0.0514  0.1308
 1195W        W11455  13.781   3.218   1.962  0.1250 -0.1624  0.0868
 1196W        W11456   2.590  14.906   7.672 -0.1621 -0.0813 -0.1376
 1197W        W11457   2.322  16.074   6.833 -0.4392 -0.2269 -0.2260
 1198W        W11458  12.430  15.928   6.927 -0.0582  0.0531 -0.0161
 1199W        W11459   2.083   5.352   8.233  0.0750  0.0559 -0.0730
 1200W        W11460  15.656   4.480   7.882 -0.1554 -0.4038 -0.3661
 1201W        W11461   1.292   1.283   0.921 -0.1389 -0.1751  0.1980
 1202W        W11462   3.982  13.701   6.482 -0.2621  0.2214 -0.0310
 1203W        W11463  16.354   5.001   6.755  0.2243  0.5588  0.0130
 1204W        W11464   3.833   6.184   7.922  0.2536  0.0923 -0.0903
 1205W        W11465   5.226   3.273   1.376  0.4140 -0.0406  0.2884
 1206W        W11466  14.953   2.074   0.543  0.0289  0.0156  0.3886
 1207W        W11467   0.487  14.097   7.914 -0.1818 -0.1080  0.0310
 1208W        W11468   0.684   6.081   6.868 -0.2218  0.1492 -0.0318
 1209W        W11469   6.607  13.146   7.392 -0.0138 -0.0071 -0.0292
 1210W        W11470  14.680   3.130   1.916  0.0827 -0.1911 -0.2103
 1211W        W11471   6.173   7.125   1.523  0.0750  0.2225  0.3036
 1212W        W11472   2.528   4.613   0.505  0.0226 -0.2391 -0.2163
 1213W        W11473   0.256   2.235   0.232  0.1505  0.0024  0.2173
 1214W        W11474   1.620   0.927   1.218  0.3973 -0.0972 -0.2452
 1215W        W11475   1.150   6.227   7.127 -0.1128 -0.1216  0.1635
 1216W        W11476   0.332   4.381   7.966  0.3476 -0.0243 -0.0546
 1217W        W11477   0.201  10.422   8.482 -0.0250  0.1165 -0.3126
 1218W        W11478   9.592  10.054   8.138 -0.2488 -0.2544  0.0932
 1219W        W11479  15.115   0.012   7.490  0.0290 -0.2587 -0.1681
 1220W        W11480  11.698   1.649   8.416  0.2212  0.0990  0.0164
 1221W        W11481  16.328   3.510   0.409  0.0043  0.3890 -0.0073
 1222W        W11482  16.202   3.088   2.016 -0.1715  0.0439  0.0810
 1223W        W11483   4.770  16.276   8.507  0.3037  0.1417  0.0232
 1224W        W11484  15.144  11.162   1.898  0.2002 -0.6747 -0.0028
 1225W        W11485   1.985  16.196   0.894 -0.1154  0.3534  0.0527
 1226W        W11486   1.903   0.844   7.110  0.0410 -0.0957  0.1597
 1227W        W11487   8.869  14.689   0.099 -0.3194  0.2462 -0.0994
 1228W        W11488   2.024  15.721   0.036  0.0077 -0.1108  0.1712
 1229W        W11489   8.117  13.227   1.162 -0.0180  0.1693 -0.2150
 1230W        W11490   6.458   2.543   8.351  0.3447  0.1129 -0.0485
 1231W        W11491  15.519   0.478   0.803  0.1253 -0.1928 -0.1865
 1232W        W11492   6.224   3.123   7.096  0.0557  0.1496 -0.0300
 1233W        W11493   6.071   0.789   8.394  0.1086  0.2432  0.1502
 1234W        W11494   2.812   2.959   0.602  0.1533 -0.1394  0.0110
 1235W        W11495   4.214   0.376   0.817 -0.4337 -0.0726 -0.2424
 1236W        W11496   0.305   1.431   0.599  0.3056  0.0170  0.1659
 1237W        W11497   6.047   2.297   8.238 -0.1913  0.1796  0.3857
 1238W        W11498  16.356   0.186   7.122 -0.1694  0.4978  0.2032
 1239W        W11499   0.372  16.375   8.157 -0.0023  0.1457 -0.0911
 1240W        W11500   5.428   2.196   7.478  0.2021  0.0132 -0.0197
 1241W        W11501   5.530  16.266   1.026  0.1643 -0.0493 -0.0810
 1242W        W11502   6.744   1.312   8.619 -0.0005  0.0115 -0.0631
 1243W        W11503   8.494  15.978   2.584 -0.0299 -0.0904  0.0108
 1244W        W11504   5.102  15.929   7.208 -0.0378  0.0681  0.3064
 1245W        W11505   0.731   0.325   8.116 -0.2008 -0.0469  0.0216
 1246W        W11506   3.937   3.642   0.810 -0.2297  0.0208 -0.0723
 1247W        W11507   1.651   2.153   0.505 -0.2823  0.1328 -0.0352
 1248W        W11508   3.893   2.254   7.729  0.1025  0.2794 -0.0141
 1249W        W11509   3.964  12.793   6.226 -0.1607  0.2181 -0.0392
 1250W        W11510   0.871   5.581   6.624 -0.0654 -0.4942 -0.0685
 1251W        W11511   0.341   2.801   0.201  0.0287 -0.3081  0.1193
 1252W        W11512   7.140   2.119   7.575 -0.0897  0.1080  0.0267
 1253W        W11513   0.522   2.771   8.409 -0.1349  0.2465  0.1387
 1254W        W11514   5.214   5.798   7.871 -0.2727 -0.2677  0.2151
 1255W        W11515   3.772   0.224   6.160 -0.1007 -0.0367 -0.0767
 1256W        W11516   5.614   1.278   7.165 -0.0304 -0.2919 -0.0596
 1257W        W11517   4.692  14.555   8.249 -0.1202 -0.2030  0.2985
 1258W        W11518   4.473   0.102   8.642  0.0945 -0.0725 -0.1331
 1259W        W11519  15.388   3.133   7.642  0.3405 -0.1474 -0.1822
 1260W        W11520   2.755  14.206   6.706  0.1983 -0.1706  0.1811
 1261W        W11521  10.016   1.960   0.083  0.0831 -0.0730  0.3483
 1262W        W11522   5.049  16.556   1.471  0.1202  0.0914 -0.2075
 1263W        W11523   3.649  14.993   7.102  0.2219  0.0629  0.1346
 1264W        W11524  15.236   4.854   7.771  0.1659 -0.0801 -0.3533
 1265W        W11525  15.971  15.776   0.982 -0.0303  0.2853 -0.1676
 1266W        W11526   6.850  16.509   6.682  0.4726 -0.0781  0.0228
 1267W        W11527   7.870   8.429   6.829 -0.0985  0.2572  0.0596
 1268W        W11528   9.227  13.606   6.935  0.1169  0.1021  0.0867
 1269W        W11529   0.709   4.991   8.667  0.2547  0.3010 -0.3841
 1270W        W11530   6.086   1.970   0.529  0.1079  0.0376 -0.4020
 1271W        W11531   1.068   0.791   7.309 -0.0531 -0.2376  0.1941
 1272W        W11532   7.127   4.713   8.612  0.1216 -0.1443  0.1373
 1273W        W11533   3.541   0.296   7.056  0.1518  0.1108  0.1520
 1274W        W11534   8.929  12.902   1.731 -0.1188  0.2149 -0.1069
 1275W        W11535   4.864  15.125   1.576  0.2011 -0.3923 -0.5849
 1276W        W11536   5.986  15.990   0.596 -0.0573  0.0118 -0.0664
 1277W        W11537   0.677  13.270   1.253 -0.0386 -0.1191 -0.3785
 1278W        W11538   4.774   1.475   6.273 -0.0118 -0.0092 -0.1025
 1279W        W11539   8.166  14.520   0.117 -0.0978  0.2254 -0.0964
 1280W        W11540  13.757   1.241   1.185  0.2418  0.2027  0.1095
 1281W        W11541  15.903   1.254   2.367  0.4428 -0.0703 -0.2599
 1282W        W11542   1.939  15.363   6.543  0.0191  0.1942  0.0702
 1283W        W11543   5.318   1.035   6.729  0.2467 -0.0903 -0.5464
 1284W        W11544   8.352   3.866   6.841  0.0273  0.1052 -0.3366
 1285W        W11545   6.315  15.590   8.054  0.2299  0.1253  0.1709
 1286W        W11546  10.462   3.246   6.865 -0.0751  0.1536  0.0641
 1287W        W11547   0.967   2.085   6.827  0.1771  0.0271  0.1302
 1288W        W11548   1.727   3.469   6.487  0.0015 -0.0700  0.4131
 1289W        W11549   8.304  13.669   7.326 -0.2144 -0.3270 -0.0079
 1290W        W11550   7.632   0.715   1.361  0.0318 -0.0545 -0.1378
 1291W        W11551   0.383  13.218   7.397  0.3690 -0.1838  0.2622
 1292W        W11552   8.978   6.425   6.916  0.1603 -0.2705 -0.0476
 1293W        W11553   3.074   0.444   6.723  0.3077 -0.0798  0.1677
 1294W        W11554   9.169  15.107   1.513 -0.2187  0.1073  0.1153
 1295W        W11555   5.872  14.831   8.446 -0.1311  0.4681 -0.2147
 1296W        W11556   7.144   0.706   0.424  0.4183  0.3112  0.2508
 1297W        W11557  10.112   8.516   7.956 -0.1219  0.1086  0.0222
 1298W        W11558   2.976   4.603   1.176 -0.0329  0.0977 -0.3513
 1299W        W11559   4.091  16.331   7.703  0.1074 -0.3611  0.0151
 1300W        W11560   3.611  14.329   1.535 -0.0564  0.3020 -0.0910
 1301W        W11561   9.529   5.160   1.199 -0.1430 -0.1041  0.1556
 1302W        W11562   9.249   5.507   7.990  0.0364  0.3117  0.2128
 1303W        W11563   6.947   6.928   7.692 -0.2879 -0.3202 -0.0294
 1304W        W11564   7.060   1.555   7.980  0.0923 -0.4018  0.0893
 1305W        W11565   3.907   1.884   8.589  0.2509  0.2001  0.0122
 1306W        W11566   1.018   2.526   8.596 -0.2863  0.3339 -0.1334
 1307W        W11567  16.363  11.630   6.658 -0.0702 -0.2376 -0.6598
 1308W        W11568  16.289  12.357   1.805  0.3011  0.1828  0.2549
 1309W        W11569   5.529   1.735   6.789 -0.1775  0.0323 -0.1540
 1310W        W11570   5.382  14.735   2.635 -0.2100  0.3217  0.0825
 1311W        W11571   8.168   0.686   1.363 -0.2513 -0.0074 -0.1889
 1312W        W11572   2.626   5.346   7.547  0.0088 -0.0519 -0.0261
 1313W        W11573   3.500   5.303   1.169  0.0355 -0.0232 -0.1649
 1314W        W11574   6.380   3.097   7.835  0.0736 -0.0159 -0.0501
 1315W        W11575   7.280   4.690   8.054  0.0348  0.0269  0.1585
 1316W        W11576   7.048  14.758   0.108  0.2655 -0.1738 -0.0894
 1317W        W11577   7.557   1.274   7.125  0.0796  0.0103  0.1468
 1318W        W11578   3.629   1.048   7.678 -0.2792 -0.1886 -0.0857
 1319W        W11579   9.883   4.372   1.145  0.0920 -0.0898  0.0354
 1320W        W11580   2.349   2.683   0.252 -0.3195  0.2728 -0.0471
 1321W        W11581   0.449   0.755   7.916 -0.0596 -0.1422  0.1811
 1322W        W11582   4.062   2.318   7.198 -0.0369  0.0684  0.1636
 1323W        W11583   5.969  13.799   1.684 -0.2601 -0.4040 -0.1075
 1324W        W11584   9.117   2.479   1.953  0.1513  0.3299 -0.3368
 1325W        W11585   2.765   5.126   8.057  0.0793 -0.0968 -0.1151
 1326W        W11586   2.068  15.953   8.290  0.2208 -0.0470 -0.1951
 1327W        W11587   4.779  13.100   1.861  0.0421 -0.0199 -0.0557
 1328W        W11588   0.718  14.018   8.357  0.0813 -0.0281  0.0859
 1329W        W11589   2.717  11.696   6.180  0.1858  0.3961  0.2663
 1330W        W11590   4.671  15.300   2.198  0.0342  0.4092 -0.0474
 1331W        W11591   3.225  12.429   7.200  0.0894  0.0632 -0.0271
 1332W        W11592   1.585  15.719   8.099 -0.0339 -0.0384  0.1623
 1333W        W11593   0.796   0.142   7.083 -0.0124 -0.0309 -0.0475
 1334W        W11594   0.243  15.878   7.804 -0.0499  0.1220  0.0903
 1335W        W11595   9.767   6.872   8.166 -0.2172 -0.2740  0.0954
 1336W        W11596   7.939  13.938   0.610 -0.1114 -0.0471 -0.0299
 1337W        W11597   1.888   4.459   0.368  0.1190 -0.1927  0.1090
 1338W        W11598   3.441   3.623   0.928 -0.0684  0.2040  0.2788
 1339W        W11599   3.761  15.971   7.489 -0.0006  0.2503 -0.0913
 1340W        W11600   3.885   2.580   8.573  0.0345  0.0455  0.0293
 1341W        W11601   8.593   6.289   6.526  0.1093 -0.1428  0.0188
 1342W        W11602  11.552   5.226   8.077  0.0244 -0.1581 -0.0114
 1343W        W11603   6.858  15.101   8.483  0.0742 -0.0663  0.1547
 1344W        W11604  10.330  12.988   1.343  0.1591  0.1560  0.2873
 1345W        W11605   5.339  13.027   2.539 -0.0695 -0.1097  0.0759
 1346W        W11606  11.083   4.976   8.128  0.4503 -0.1242 -0.1051
 1347W        W11607   4.647  16.338   0.466 -0.3961 -0.0521 -0.0533
 1348W        W11608   2.086   6.304   2.066  0.1137 -0.3745 -0.1065
 1349W        W11609  15.795  14.492   7.625 -0.4622  0.2226  0.2974
 1350W        W11610   5.713   2.353   6.728  0.3270  0.1507  0.2301
 1351W        W11611  10.664   1.304   0.138 -0.1328 -0.2286 -0.0098
 1352W        W11612  13.712   3.382   7.812  0.0291 -0.0602 -0.0105
 1353W        W11613   1.904   2.935   8.193 -0.1127 -0.2549  0.0135
 1354W        W11614   1.342  15.312   7.183  0.1391  0.0791 -0.2074
 1355W        W11615   7.184  12.160   7.746 -0.1456 -0.2636  0.2309
 1356W        W11616   4.785   1.066   1.607 -0.2686 -0.2367  0.0152
 1357W        W11617   6.655   1.198   0.984 -0.1141  0.1222  0.2390
 1358W        W11618   3.143   2.592   0.656  0.2406 -0.2226  0.1609
 1359W        W11619  16.373  15.419   1.014  0.2100 -0.0681  0.1327
 1360W        W11620  14.980  16.384   1.718  0.1507 -0.0018  0.0467
 1361W        W11621  13.222   3.268   7.995 -0.1496  0.0981  0.2287
 1362W        W11622   0.758   3.658   1.366  0.1887 -0.0036  0.2042
 1363W        W11623   9.980   0.608   7.715  0.0942 -0.0273  0.1179
 1364W        W11624   5.223  16.242   8.257 -0.0164 -0.2110  0.1257
 1365W        W11625  16.000  13.320   0.049  0.4250 -0.1690  0.1820
 1366W        W11626   8.669   5.665   7.234 -0.0564 -0.1680 -0.0573
 1367W        W11627  15.423   1.840   0.229 -0.1134  0.1714  0.0622
 1368W        W11628   3.748  12.553   7.956  0.0300 -0.2266  0.0706
 1369W        W11629   5.074   2.984   7.300  0.3264 -0.2723 -0.0461
 1370W        W11630  15.422   1.174   7.808 -0.0193  0.0958 -0.3420
 1371W        W11631   7.442   0.333   1.007  0.2936 -0.3187 -0.1669
 1372W        W11632   5.070   2.477   6.509  0.1007  0.1523 -0.1107
 1373W        W11633   1.472   0.269   1.581 -0.0194 -0.6637  0.0648
 1374W        W11634   4.488   6.670   1.020  0.1743 -0.2368 -0.1433
 1375W        W11635   9.564  11.436   8.017 -0.0473 -0.1592 -0.3082
 1376W        W11636   0.754   2.808   7.479 -0.0031 -0.0476  0.1686
 1377W        W11637   7.826   3.340   8.253 -0.0323 -0.3731 -0.0946
 1378W        W11638   1.828   7.795   0.893  0.0078  0.0905 -0.0086
 1379W        W11639   8.837   0.090   7.327  0.0285 -0.0275 -0.0490
 1380W        W11640   2.124  14.701   1.456 -0.0923  0.1369 -0.1076
 1381W        W11641   3.575   3.889   1.427 -0.2346 -0.1202 -0.1151
 1382W        W11642   5.231  15.823   7.985 -0.1271 -0.1157 -0.2892
 1383W        W11643   0.098   6.207   1.855 -0.0278  0.0294 -0.0083
 1384W        W11644  12.604   3.848   1.729 -0.2866  0.1028  0.2147
 1385W        W11645   2.522   1.810   6.771  0.0452  0.2027 -0.2365
 1386W        W11646   5.833  15.662   0.132 -0.0317 -0.2155  0.1172
 1387W        W11647   5.871   0.889   1.559 -0.0119  0.2005 -0.4212
 1388W        W11648   1.413   8.013   2.043 -0.0438  0.0564 -0.3119
 1389W        W11649   4.052  11.573   1.294 -0.0013 -0.1698 -0.2073
 1390W        W11650  12.786   5.066   8.437 -0.0569 -0.0831 -0.0133
 1391W        W11651   1.728   7.630   1.912 -0.0376  0.1769  0.2016
 1392W        W11652  12.225  10.001   8.542 -0.0993  0.1275 -0.3203
 1393W        W11653   2.378  15.558   0.380  0.2907 -0.1783 -0.1092
 1394W        W11654   3.445   1.722   7.260 -0.0427 -0.0620 -0.0636
 1395W        W11655   1.551   2.484   6.262  0.0455 -0.4140  0.3799
 1396W        W11656   6.566  13.940   0.775 -0.2692  0.1347  0.1274
 1397W        W11657   1.259  15.734   1.364 -0.1116  0.2350 -0.0073
 1398W        W11658   8.030   1.562   8.455 -0.1779 -0.1363 -0.2539
 1399W        W11659  11.131   6.824   8.444 -0.2612  0.0029  0.2443
 1400W        W11660   6.158   2.491   1.883  0.3138  0.0033  0.0131
 1401W        W11661   8.182  11.539   8.138 -0.0928  0.0391 -0.1531
 1402W        W11662   4.418   5.330   1.365 -0.1477  0.1329 -0.1555
 1403W        W11663   2.022   1.298   0.120 -0.1570 -0.0795 -0.0518
 1404W        W11664   2.208  12.292   1.629 -0.0173 -0.1377  0.0646
 1405W        W11665   0.641   0.171   0.642 -0.0976  0.0646  0.0551
 1406W        W11666   2.113   0.071   0.869  0.3630 -0.1315 -0.0820
 1407W        W11667  12.680   2.990   7.907  0.1205  0.1429 -0.1674
 1408W        W11668   8.737   0.673   7.899 -0.0097  0.0511 -0.2450
 1409W        W11669  15.419   6.638   6.445 -0.3455  0.2587 -0.0149
 1410W        W11670   3.964  15.847   8.556 -0.1566 -0.2858 -0.2421
 1411W        W11671  15.263  13.144   8.097  0.2012  0.1527 -0.2409
 1412W        W11672   2.091   3.848   7.216 -0.1017 -0.0119 -0.1447
 1413W        W11673   6.293   3.723   0.380 -0.0465  0.0105  0.0467
 1414W        W11674   2.728   0.351   8.444 -0.0827 -0.0568  0.0309
 1415W        W11675   3.823   3.817   7.836  0.0961  0.0474  0.2125
 1416W        W11676  15.389   1.395   1.812 -0.0283 -0.3403 -0.1297
 1417W        W11677   6.281   1.626   8.630 -0.2105 -0.0360 -0.2539
 1418W        W11678   5.191  15.550   0.705  0.0256  0.3415  0.0245
 1419W        W11679   9.219  13.913   1.020  0.0440  0.1394 -0.0030
 1420W        W11680   5.049   5.404   7.083 -0.0107 -0.1278  0.2143
 1421W        W11681   2.548   0.308   6.856 -0.1049 -0.3449 -0.2890
 1422W        W11682   1.593   3.182   7.231 -0.0433 -0.0518  0.4189
 1423W        W11683  12.925   0.616   0.901  0.0107 -0.2123  0.0788
 1424W        W11684  13.114   4.926   8.061  0.1435 -0.1338  0.5321
 1425W        W11685   2.693   1.611   1.126  0.2505 -0.1265  0.1390
 1426W        W11686   3.827   9.159   7.542 -0.0800  0.0521 -0.1273
 1427W        W11687   6.372   5.785   0.750 -0.4719  0.1068  0.1794
 1428W        W11688   6.358   0.308   8.562  0.1169  0.1409  0.1451
 1429W        W11689   9.888   9.835   0.948 -0.0616  0.1660 -0.1084
 1430W        W11690   5.495   0.258   1.700  0.0932  0.1126  0.1172
 1431W        W11691   8.480   0.391   1.037  0.2767 -0.2229  0.2620
 1432W        W11692   7.178   6.058   1.819 -0.1897 -0.1304 -0.1174
 1433W        W11693   7.756  12.966   8.194 -0.2214  0.1981  0.2280
 1434W        W11694  10.893   0.830   0.189  0.3032  0.3523 -0.0138
 1435W        W11695  11.907   1.459   1.490  0.1570  0.0909 -0.1933
 1436W        W11696  14.197  16.534   0.623 -0.1749  0.0817  0.0331
 1437W        W11697  11.217   7.220   0.453  0.1394 -0.4293 -0.3292
 1438W        W11698   7.852   0.153   8.043 -0.1855  0.1211  0.0290
 1439W        W11699   8.451  12.354   6.143 -0.1707  0.1856 -0.0909
 1440W        W11700  12.428   0.784   7.091 -0.3801  0.2013  0.0075
 1441W        W11701  13.983   0.055   2.244  0.0212 -0.2019  0.2592
 1442W        W11702   8.035   6.308   6.830 -0.0861 -0.1584 -0.2283
 1443W        W11703  12.308   0.306   0.062 -0.1689 -0.0347 -0.2996
 1444W        W11704  15.451   3.252   5.941 -0.0208 -0.0413  0.1174
 1445W        W11705  12.315   2.657   6.806 -0.1104  0.0691 -0.0672
 1446W        W11706  10.429  12.250   0.466 -0.1816 -0.3620  0.1963
 1447W        W11707   8.032   1.723   1.043 -0.0041 -0.0310 -0.3599
 1448W        W11708  14.197   7.256   0.889 -0.2015 -0.2481  0.0254
 1449W        W11709   9.713  15.911   6.192 -0.3314 -0.1400 -0.0040
 1450W        W11710  10.729   5.835   0.522  0.0212  0.0333 -0.2698
 1451W        W11711   2.578   2.419   1.202  0.1825 -0.0893 -0.0533
 1452W        W11712   6.444   2.749   2.416  0.0099  0.1314 -0.0406
 1453W        W11713   6.054   4.842   6.737  0.2568  0.4489 -0.0928
 1454W        W11714   5.253   0.455   0.503 -0.0668 -0.1367  0.1447
 1455W        W11715   8.607   2.560   1.233  0.0320  0.4821  0.1162
 1456W        W11716   5.157   8.018   7.561  0.3728  0.0252 -0.2527
 1457W        W11717   9.519   6.515   6.755 -0.0092  0.0125 -0.1606
 1458W        W11718   9.102   8.029   8.611 -0.3394 -0.1659  0.0351
 1459W        W11719   7.648   1.397   1.934  0.2292  0.3038  0.0649
 1460W        W11720  11.570   3.098   0.568  0.2761 -0.1494 -0.3060
 1461W        W11721   4.639  14.268   7.478  0.3954 -0.1153  0.1045
 1462W        W11722   2.348  14.872   7.204 -0.4907  0.0213  0.1080
 1463W        W11723   4.354   6.278   7.863 -0.2561 -0.1038  0.1305
 1464W        W11724  10.649   5.270   8.245 -0.0133  0.2034  0.0523
 1465W        W11725   9.395   5.457   1.869  0.1413  0.3335 -0.4470
 1466W        W11726   5.953   2.941   1.737  0.0793  0.1141  0.1165
 1467W        W11727   7.146   0.223   0.572  0.0534  0.0630 -0.1756
 1468W        W11728   4.600   4.347   7.631  0.1612  0.0374  0.4579
 1469W        W11729   9.944  13.962   0.584  0.0316  0.0647 -0.0041
 1470W        W11730   9.282   2.987   7.822  0.0743 -0.1887 -0.0627
 1471W        W11731   9.684  15.431   1.322 -0.2715  0.1836 -0.4307
 1472W        W11732  13.130  10.690   8.142  0.1535 -0.1599 -0.2119
 1473W        W11733   9.801   5.199   8.215 -0.1649 -0.0056  0.2039
 1474W        W11734   8.257  12.846   7.952 -0.1127  0.1771  0.3029
 1475W        W11735   8.459  15.931   8.603 -0.2967  0.3018  0.0460
 1476W        W11736  10.249  12.438   7.786  0.3098 -0.0364  0.2084
 1477W        W11737   9.470  14.032   7.217 -0.1414  0.1892  0.0455
 1478W        W11738   9.912   0.146   6.860 -0.1427  0.0431 -0.0072
 1479W        W11739   6.455  12.067   8.251  0.3896  0.0630  0.3211
 1480W        W11740  10.023   2.142   0.862  0.0013 -0.1937 -0.0184
 1481W        W11741   5.458  15.468   7.590  0.0815 -0.0007  0.2491
 1482W        W11742   1.801  14.413   8.434 -0.1803 -0.0402  0.1396
 1483W        W11743   3.016  10.467   7.557 -0.0982  0.2222  0.2154
 1484W        W11744   6.980   9.035   0.842  0.0281 -0.2551 -0.0068
 1485W        W11745   8.330   3.812   8.313 -0.2677 -0.1962 -0.0409
 1486W        W11746   5.609   3.477   0.975 -0.0276  0.0731 -0.1937
 1487W        W11747  10.097   0.617   1.096 -0.0432 -0.0305 -0.0119
 1488W        W11748   7.471  15.831   1.154  0.0270  0.2177  0.0199
 1489W        W11749   7.064  15.081   7.495 -0.1489 -0.0545 -0.0211
 1490W        W11750  11.826   1.418   6.766 -0.1259  0.0241  0.4131
 1491W        W11751   6.942  15.511   6.787 -0.0635 -0.2353  0.2322
 1492W        W11752   2.235   4.295   0.674  0.1807 -0.0892  0.1666
 1493W        W11753   4.658   5.853   7.152 -0.2313 -0.0024  0.1810
 1494W        W11754   5.059  14.378   6.250  0.0915 -0.0514  0.2084
 1495W        W11755  10.797   5.635   6.182  0.0044  0.1332  0.2017
 1496W        W11756  13.251   8.656   6.331  0.2338 -0.0292 -0.0885
 1497W        W11757   8.142   6.332   2.142  0.2855  0.0222  0.0617
 1498W        W11758   6.175  15.347   7.226 -0.2262 -0.0045 -0.1141
 1499W        W11759   8.752  14.699   7.214  0.2807  0.1293 -0.1385
 1500W        W11760  14.290   4.574   7.646  0.1767  0.0400  0.1097
 1501W        W11761  11.746   4.207   7.871 -0.2383  0.0556  0.0707
 1502W        W11762   7.858   0.102   7.179  0.1861  0.0190  0.0964
 1503W        W11763   9.984  14.421   7.852  0.0674 -0.2903  0.1088
 1504W        W11764  10.374   4.566   1.042  0.1044 -0.0619 -0.0162
 1505W        W11765  10.635  12.427   8.118 -0.0570 -0.0034 -0.1613
 1506W        W11766  11.792   9.602   2.467 -0.2969 -0.2257  0.3690
 1507W        W11767   7.072   1.153   7.670  0.0182  0.1415 -0.0640
 1508W        W11768   7.906   6.896   7.548  0.1515 -0.0103 -0.0964
 1509W        W11769   9.122  16.286   0.898  0.0420 -0.1239 -0.1837
 1510W        W11770   3.976   3.869   6.861 -0.1131 -0.2062  0.2475
 1511W        W11771   2.625  14.486   7.407 -0.0095 -0.1310  0.3259
 1512W        W11772   8.913   1.158   8.152  0.0682 -0.0104 -0.1217
 1513W        W11773   6.250   1.792   7.328  0.0410 -0.2774 -0.2339
 1514W        W11774   7.920   1.515   6.560 -0.1830 -0.3174  0.0962
 1515W        W11775  14.596   2.434   1.225  0.4004  0.2266  0.0900
 1516W        W11776   2.762  16.512   8.018 -0.1885 -0.1078  0.0082
 1517W        W11777   7.788   2.334   6.946  0.1488  0.3334  0.3678
 1518W        W11778  10.296   1.891   1.572 -0.4322 -0.1934  0.1250
 1519W        W11779   8.514   4.411   6.946  0.1328  0.2232 -0.0611
 1520W        W11780   7.815  16.370   6.817 -0.1422 -0.0504  0.1359
 1521W        W11781   7.247   1.953   7.053  0.2536  0.0574 -0.1821
 1522W        W11782   5.972  13.960   0.819 -0.0179  0.0067  0.0726
 1523W        W11783  12.942   5.133   0.834 -0.2966 -0.1868 -0.1573
 1524W        W11784  13.021   5.664   2.739 -0.2457  0.0635  0.0862
 1525W        W11785   8.458   1.518   6.758 -0.2927 -0.0862  0.2287
 1526W        W11786  15.535   1.381   8.665 -0.0976 -0.0110  0.2851
 1527W        W11787   8.186   0.029   0.688 -0.0233  0.0708 -0.0513
 1528W        W11788   8.444  15.476   7.766  0.2969  0.1241  0.2219
 1529W        W11789   4.544   2.949   0.445  0.2182  0.1619 -0.2172
 1530W        W11790  11.633  12.639   6.601  0.1391  0.1671  0.3292
 1531W        W11791   8.707  16.214   7.098  0.0176  0.0510  0.0019
 1532W        W11792   7.393   5.152   8.032 -0.1672  0.1425  0.3390
 1533W        W11793   1.847  11.073   1.322  0.1297  0.0695  0.0807
 1534W        W11794   6.899  11.389   0.091 -0.0246 -0.3731 -0.1778
 1535W        W11795   4.333   3.039   6.472 -0.2530 -0.0567  0.2544
 1536W        W11796  12.434  12.983   0.650 -0.2367  0.0240 -0.0145
 1537W        W11797  11.455   4.307   7.497  0.3870 -0.3301 -0.3750
 1538W        W11798   9.569   0.599   1.240  0.2333 -0.1149 -0.1572
 1539W        W11799   7.130   1.944   5.943  0.1777 -0.3695 -0.0637
 1540W        W11800  16.069  15.498   1.991  0.2116  0.0151  0.0925
 1541W        W11801  15.136   1.063   7.342 -0.0626  0.3040  0.2641
 1542W        W11802  10.113   4.386   8.191  0.0219 -0.0948 -0.0280
 1543W        W11803   7.464   4.373   8.433  0.0965  0.0549  0.1721
 1544W        W11804   2.860  14.323   0.058  0.1802  0.3008  0.4054
 1545W        W11805   5.491   0.993   8.226  0.1136  0.0712  0.0072
 1546W        W11806   7.173  13.096   8.279 -0.1908 -0.2299 -0.1200
 1547W        W11807   9.894   0.679   8.560 -0.0183  0.2780 -0.0424
 1548W        W11808  14.180  12.135   0.618  0.1576 -0.1904  0.0026
 1549W        W11809   8.586   2.518   7.669  0.2926 -0.0348 -0.0697
 1550W        W11810   9.541   4.184   7.451  0.1205  0.0589  0.0459
 1551W        W11811   4.549   6.248   1.234 -0.2905 -0.1696  0.0154
 1552W        W11812  10.648   0.774   7.094  0.4940  0.0902 -0.2269
 1553W        W11813  11.404  13.810   7.267 -0.0700  0.1226  0.0640
 1554W        W11814   9.503  16.567   7.040  0.1539 -0.0191  0.2243
 1555W        W11815   9.746   3.616   6.737 -0.5262  0.1429 -0.2134
 1556W        W11816  11.892   3.434   7.709  0.1055 -0.0118 -0.0053
 1557W        W11817  11.375   5.834   1.600 -0.1211  0.0556  0.2331
 1558W        W11818   5.403   2.212   5.989  0.1617 -0.1371 -0.2180
 1559W        W11819  10.602   2.189   7.695 -0.2008 -0.0376  0.1071
 1560W        W11820   4.708  15.769   6.972 -0.0596  0.0196 -0.0252
 1561W        W11821   7.976   2.152   2.162 -0.1364  0.0767  0.1169
 1562W        W11822  10.979   2.228   6.453 -0.0037  0.1725 -0.0740
 1563W        W11823  10.277   0.792   1.520  0.0319 -0.0370  0.1648
 1564W        W11824   8.522   2.167   8.006  0.3145 -0.0432  0.1431
 1565W        W11825   4.225  13.989   1.099  0.1707 -0.0999 -0.3501
 1566W        W11826   5.123   1.356   7.067 -0.2173  0.0215 -0.1485
 1567W        W11827   7.842   9.614   0.892  0.0536  0.1923 -0.0985
 1568W        W11828   2.253   2.398   7.437 -0.1875 -0.1515 -0.2614
 1569W        W11829  15.258   6.734   0.261  0.0539  0.0104  0.3482
 1570W        W11830  16.253  10.696   0.949  0.2099  0.0608  0.0183
 1571W        W11831  13.379   2.841   7.263 -0.3235 -0.1672  0.1692
 1572W        W11832   5.566  13.380   6.677 -0.1954 -0.0253 -0.0136
 1573W        W11833   4.062  14.999   0.232 -0.0630  0.2101 -0.3355
 1574W        W11834  12.308   4.161   8.504  0.0655 -0.0010 -0.1755
 1575W        W11835   6.996  14.519   1.576 -0.0833  0.0758 -0.1349
 1576W        W11836   8.682   5.593   0.002  0.0825  0.2765  0.0098
 1577W        W11837  12.991  13.665   8.438 -0.2503 -0.1327 -0.0785
 1578W        W11838  11.219   2.116   6.852  0.1810 -0.1435 -0.1215
 1579W        W11839  13.842   7.102   8.630  0.0431  0.0079 -0.0555
 1580W        W11840   9.091   1.514   8.491  0.1243  0.0310 -0.3188
 1581W        W11841  15.485   4.098   0.457  0.2049 -0.1112 -0.2320
 1582W        W11842  16.545  16.077   8.199  0.2783  0.0765 -0.1075
 1583W        W11843  10.870  15.490   7.630 -0.3605  0.1308 -0.2002
 1584W        W11844   1.415   2.144   0.066  0.0205 -0.0425  0.0236
 1585W        W11845   7.271   0.454   1.549 -0.1585  0.0765  0.1804
 1586W        W11846   9.986  15.326   7.284  0.1325  0.0467  0.2820
 1587W        W11847   8.677   4.283   7.717  0.0380 -0.0320 -0.1248
 1588W        W11848  16.099   5.592   1.460 -0.1999  0.0275 -0.1312
 1589W        W11849   2.621   2.165   8.212 -0.0872  0.0471  0.0713
 1590W        W11850  10.508   8.104   5.874 -0.0159  0.0524  0.3352
 1591W        W11851   3.427   1.134   1.479  0.0115  0.0111  0.1344
 1592W        W11852   9.711   3.463   0.758  0.1145  0.1113 -0.1110
 1593W        W11853   5.271   1.788   0.798  0.3150 -0.1206 -0.1676
 1594W        W11854  12.611   5.684   1.394  0.0734 -0.1683  0.0863
 1595W        W11855  11.312   1.033   0.451 -0.1370  0.1268 -0.0090
 1596W        W11856  12.180  14.259   0.661 -0.0070  0.0413 -0.2384
 1597W        W11857  11.790   3.444   0.272 -0.0750 -0.0394 -0.2482
 1598W        W11858   9.367   2.060   7.540  0.0578  0.0908 -0.2724
 1599W        W11859   7.360   1.523   6.674 -0.0337  0.2270  0.0338
 1600W        W11860   4.991   2.153   0.578  0.3371  0.0647 -0.3013
 1601W        W11861   7.329  15.497   8.354  0.2233 -0.1885 -0.1540
 1602W        W11862   3.129  13.879   0.275 -0.0900 -0.1978 -0.0138
 1603W        W11863  10.088   5.678   8.418  0.5236  0.0703  0.1205
 1604W        W11864   7.149  13.130   1.197 -0.1443  0.1043 -0.3520
 1605W        W11865   4.393  15.746   0.577 -0.1539  0.3253  0.3576
 1606W        W11866   5.356   2.116   1.976 -0.1955 -0.1813 -0.1568
 1607W        W11867   3.380   9.926   8.423 -0.0854  0.0807 -0.4959
 1608W        W11868  10.617   5.199   7.762 -0.1360  0.3939 -0.1383
 1609W        W11869   8.790  12.375   1.801  0.3368 -0.1655  0.1146
 1610W        W11870  10.286   1.728   1.090  0.0408 -0.0396  0.0785
 1611W        W11871  11.332   1.792   0.093 -0.0175 -0.2208  0.1345
 1612W        W11872   1.500   2.693   6.930 -0.1613  0.0311  0.0442
 1613W        W11873  11.373   7.597   8.275 -0.1724  0.1034  0.1229
 1614W        W11874   9.041   4.849   0.711 -0.0079  0.0500 -0.1861
 1615W        W11875  10.145   2.349   7.599 -0.1089  0.1834  0.0882
 1616W        W11876   6.910   3.016   1.342 -0.1716 -0.3438  0.0121
 1617W        W11877  10.136   1.883   6.844  0.0251 -0.1360 -0.2230
 1618W        W11878   5.409  13.114   8.584 -0.0146 -0.1588  0.1926
 1619W        W11879   7.766  15.428   1.846 -0.1784 -0.0496  0.1830
 1620W        W11880   6.256   1.132   1.857 -0.0054 -0.1852  0.0384
 1621W        W11881   9.880   6.911   0.199 -0.0258  0.2034 -0.0753
 1622W        W11882  10.467   3.942   7.539  0.2448  0.2524 -0.0122
 1623W        W11883   2.248  10.116   7.147 -0.1733  0.0161 -0.2005
 1624W        W11884   5.022  14.030   0.298 -0.0014  0.6010  0.1022
 1625W        W11885   8.734   0.269   8.370  0.1794  0.2405  0.0212
 1626W        W11886   9.055   2.015   6.312 -0.1256  0.0070  0.0793
 1627W        W11887   4.460   3.599   0.661  0.2730 -0.0499 -0.3488
 1628W        W11888   8.707   5.447   6.053 -0.1637 -0.0328  0.2071
 1629W        W11889  14.469   6.168   7.389 -0.0353  0.1281  0.1728
 1630W        W11890  12.433   0.694   1.898 -0.0312  0.0314 -0.0033
 1631W        W11891  10.021  16.353   7.201  0.0957 -0.3228  0.1152
 1632W        W11892  10.747  16.102   0.896  0.0671 -0.0290  0.3187
 1633W        W11893  16.242   5.010   2.220  0.1457 -0.3613  0.2050
 1634W        W11894  10.380   7.573   8.376  0.0144 -0.1040 -0.2214
 1635W        W11895   9.562   3.556   0.293 -0.2616 -0.1102 -0.0145
 1636W        W11896  16.037   1.829   1.770  0.0850  0.0431 -0.0731
 1637W        W11897  13.416   5.741   7.353 -0.2106  0.0758  0.2450
 1638W        W11898   5.846  14.868   1.495  0.0909  0.4039 -0.1976
 1639W        W11899  14.976  16.417   7.971 -0.4024 -0.0723  0.1096
 1640W        W11900  11.625   1.825   6.930 -0.0919  0.0504 -0.1444
 1641W        W11901  12.905  12.002   7.537  0.0778 -0.1840 -0.1624
 1642W        W11902  11.786  13.654   0.860 -0.2019 -0.2083 -0.0569
 1643W        W11903  13.165   0.720   6.645 -0.1899  0.2303  0.3791
 1644W        W11904  10.646   8.322   7.987 -0.0740 -0.2079  0.1667
 1645W        W11905   7.342  12.031   0.222  0.3209 -0.0003 -0.1540
 1646W        W11906  11.100   1.480   0.404  0.0633  0.0138  0.1169
 1647W        W11907  12.548   4.369   1.384 -0.1808  0.0493  0.0773
 1648W        W11908  13.967   6.862   2.864 -0.0517  0.1709 -0.0898
 1649W        W11909  13.415   2.109   1.197 -0.0481 -0.2206 -0.0162
 1650W        W11910   9.922   9.096   0.558  0.1162 -0.2135  0.0338
 1651W        W11911  10.219   2.379   1.718  0.0973  0.1448 -0.3420
 1652W        W11912   8.401  11.642   6.741 -0.0954 -0.0052 -0.0716
 1653W        W11913  11.381   0.754   1.033 -0.1238 -0.3864  0.4031
 1654W        W11914   0.478  11.033   7.022  0.1295 -0.1350  0.0288
 1655W        W11915  14.799   3.460   0.263  0.3113 -0.0363 -0.1049
 1656W        W11916   9.000   4.477   6.761  0.1059  0.0180 -0.5245
 1657W        W11917   2.534  13.383   8.446 -0.1287 -0.1751 -0.5766
 1658W        W11918  14.596  16.300   7.257  0.1441  0.2703  0.5333
 1659W        W11919  12.426   3.810   5.772 -0.1365 -0.1731 -0.0859
 1660W        W11920  15.323   4.934   1.786 -0.1729 -0.0321  0.2172
 1661W        W11921  15.448  15.470   0.164 -0.0361 -0.0462 -0.0327
 1662W        W11922  10.651   7.120   1.515  0.1142 -0.0444 -0.1555
 1663W        W11923  15.440   8.378   0.632 -0.0215 -0.0660  0.1883
 1664W        W11924  13.662  14.566   1.015  0.2015 -0.0440 -0.0668
 1665W        W11925  12.671   2.524   1.483 -0.1021  0.3643 -0.1072
 1666W        W11926  13.679   6.269   1.763 -0.1135 -0.1188  0.0871
 1667W        W11927  10.939   7.672   0.691  0.1143 -0.1986  0.0829
 1668W        W11928  13.856  16.521   0.955 -0.3431 -0.1552  0.3893
 1669W        W11929  11.412   0.800   0.008  0.0548 -0.3203  0.0477
 1670W        W11930   7.388   1.111   1.085 -0.1495  0.3108  0.1562
 1671W        W11931  13.968   5.299   7.992  0.2637 -0.0860  0.0263
 1672W        W11932  11.879  14.687   0.860  0.2371  0.0825  0.2758
 1673W        W11933  13.269   1.810   7.607 -0.2508  0.2225  0.0167
 1674W        W11934   9.752   0.810   0.332  0.2256 -0.2655 -0.2155
 1675W        W11935  16.270   0.950   1.659 -0.0286 -0.2230 -0.1183
 1676W        W11936  11.415   4.920   1.672  0.2216  0.0451 -0.1906
 1677W        W11937  15.814   2.468   7.758  0.1259 -0.3468 -0.1606
 1678W        W11938   8.881   2.857   7.490  0.1985 -0.1410  0.1672
 1679W        W11939  10.221   2.611   0.860  0.1064  0.1130  0.0507
 1680W        W11940   0.686   6.583   0.726 -0.2323 -0.4488 -0.1108
 1681W        W11941   1.145   1.384   1.520  0.0150  0.0330 -0.0486
 1682W        W11942   0.642   3.826   7.108  0.1071 -0.0080  0.0563
 1683W        W11943   9.892   1.021   1.330 -0.2015  0.2427  0.1280
 1684W        W11944  16.158   2.373   8.517 -0.1527  0.1974 -0.0701
 1685W        W11945  11.860   6.668   0.671  0.3660 -0.1014  0.0895
 1686W        W11946  12.684   0.738   6.617 -0.2780 -0.1353 -0.1195
 1687W        W11947  15.495   2.002   1.832 -0.0624  0.0366  0.1077
 1688W        W11948  11.729   3.757   2.129  0.1821 -0.3378 -0.1955
 1689W        W11949   7.643   5.929   6.840 -0.0949 -0.0866 -0.1361
 1690W        W11950  11.155   0.395   0.149  0.1199 -0.0911  0.2393
 1691W        W11951  16.217  16.219   1.262 -0.1346 -0.0152  0.2900
 1692W        W11952  12.409   0.565   0.830 -0.0196  0.2517 -0.2390
 1693W        W11953  11.941  13.660   1.347 -0.0675  0.1896  0.0362
 1694W        W11954   4.378  15.033   7.746 -0.0787 -0.0056 -0.2047
 1695W        W11955  16.534   5.362   1.649 -0.1057  0.0406  0.0318
 1696W        W11956  15.927   5.011   1.708 -0.1004  0.1761  0.1147
 1697W        W11957   2.904  16.343   1.279  0.2316 -0.1122 -0.1436
 1698W        W11958  15.490   8.238   2.363  0.0311  0.2338  0.1253
 1699W        W11959   7.748   2.133   0.829  0.2778 -0.1270 -0.0814
 1700W        W11960  11.156  16.108   7.717  0.1348 -0.2296  0.0737
 1701W        W11961  15.582   3.864   6.782 -0.0412 -0.0615  0.4429
 1702W        W11962  11.238  14.419   0.898 -0.0569 -0.2546  0.0235
 1703W        W11963   6.947  11.755   7.476  0.0301 -0.2148  0.2833
 1704W        W11964   9.437  11.969   8.133  0.1515 -0.0369 -0.2362
 1705W        W11965   0.077   5.355   0.539 -0.0466 -0.1886  0.0222
 1706W        W11966   0.010   9.168   1.719 -0.0938  0.0599  0.1894
 1707W        W11967  14.605   0.571   7.829 -0.0782 -0.1224  0.3106
 1708W        W11968  15.110  13.416   2.070 -0.1713  0.1305 -0.2176
 1709W        W11969  14.418  16.365   1.603 -0.0788 -0.2383  0.3521
 1710W        W11970   7.823   4.743   0.796  0.3971 -0.0550  0.2462
 1711W        W11971  11.605   2.289   7.210 -0.2116  0.2420  0.2342
 1712W        W11972   9.077   0.385   0.455 -0.1180 -0.0822  0.0725
 1713W        W11973  12.407   3.812   8.124  0.1977 -0.0537 -0.0618
 1714W        W11974  12.444   0.088   0.515  0.0919 -0.0739  0.0164
 1715W        W11975  15.304  15.616   6.925 -0.0032  0.0212  0.1182
 1716W        W11976   8.072  15.198   7.735  0.2669 -0.0458 -0.3176
 1717W        W11977  11.729   8.309   5.832  0.1846  0.0940  0.1232
 1718W        W11978   9.992   4.804   1.952 -0.4317 -0.2044 -0.0258
 1719W        W11979   1.860   4.321   5.806  0.1439  0.3157  0.1721
 1720W        W11980  13.240   4.655   0.278  0.1817  0.1486  0.0339
 1721W        W11981  13.810   2.414   0.496  0.1814 -0.0289 -0.2926
 1722W        W11982  15.786   1.029   0.275 -0.3334  0.0215 -0.0732
 1723W        W11983  15.620   6.097   7.658  0.0528  0.2970 -0.0220
 1724W        W11984  15.736   3.954   1.933  0.3112 -0.0479 -0.2427
 1725W        W11985   6.389  16.224   0.413  0.2176 -0.1392  0.0344
 1726W        W11986  11.099   4.012   7.153 -0.0624  0.0313 -0.0041
 1727W        W11987   9.475  15.853   0.163  0.0460  0.0115 -0.1707
 1728W        W11988  16.380  14.189   8.277 -0.2515 -0.1016  0.0458
 1729W        W11989  13.199   1.066   0.452 -0.1193  0.1686 -0.0974
 1730W        W11990  13.404  10.451   6.772  0.0457 -0.1399  0.2791
 1731W        W11991   9.631   4.263   8.342  0.0291 -0.1038 -0.2141
 1732W        W11992  10.236   0.118   6.311  0.3816  0.0528  0.0499
 1733W        W11993   7.300  15.681   1.766 -0.4911  0.0437 -0.0952
 1734W        W11994  11.434   2.702   1.801  0.0806 -0.1817  0.2821
 1735W        W11995  11.116   4.610   7.748 -0.1981  0.2096 -0.0098
 1736W        W11996  16.225   1.343   6.925 -0.1368  0.2245  0.1361
 1737W        W11997  13.467  15.475   7.655  0.0358  0.2347 -0.0737
 1738W        W11998  10.240   0.665   6.311  0.0669  0.2395  0.4145
 1739W        W11999   6.548   3.823   0.782  0.0063  0.0752 -0.0358
 1740W        W12000   2.105   3.273   0.617 -0.3623  0.1681 -0.1147
 1741W        W12001  12.503   5.692   1.938 -0.2443  0.1605 -0.0176
 1742W        W12002  15.802   3.508   1.744  0.0511  0.1973 -0.1746
 1743W        W12003  13.367   0.242   0.094 -0.0615 -0.1806 -0.1201
 1744W        W12004  12.816  16.002   0.093  0.0753 -0.0550  0.0789
 1745W        W12005  10.059   3.969   1.774 -0.2529  0.0592 -0.1025
 1746W        W12006   0.012   0.675   2.092 -0.2741 -0.2710  0.0437
 1747W        W12007   6.265   0.460   0.679 -0.0710 -0.1109 -0.0230
 1748W        W12008  11.512   2.060   7.637  0.0088  0.1812  0.1264
 1749W        W12009  12.557   1.756   6.399 -0.1692 -0.2138  0.1514
 1750W        W12010  11.476   9.862   0.099  0.0494  0.3191 -0.2083
 1751W        W12011   6.035   3.714   1.910 -0.2611 -0.0266 -0.0071
 1752W        W12012  15.255   3.270   0.503  0.1106  0.1688  0.1893
 1753W        W12013  10.334   3.922   8.021  0.0107  0.0530  0.1896
 1754W        W12014   2.709   3.467   1.579 -0.3170 -0.1102 -0.0984
 1755W        W12015  12.743  15.861   1.800  0.0752  0.0435  0.1192
 1756W        W12016  14.311   4.622   7.140 -0.2439 -0.1768  0.0201
 1757W        W12017  10.351  14.928   0.982 -0.1676 -0.1368 -0.1144
 1758W        W12018   6.634  15.470   1.091  0.1443 -0.2328 -0.1428
 1759W        W12019   8.850   2.744   0.448  0.1198 -0.1727 -0.0990
 1760W        W12020  14.091   4.100   7.590 -0.0455  0.1714 -0.0354
 1761W        W12021  14.215  16.127   1.075  0.0620  0.2458 -0.0320
 1762W        W12022  15.646   4.207   1.529 -0.2481 -0.2837  0.0441
 1763W        W12023  14.926   1.637   8.156  0.3087 -0.1418  0.2038
 1764W        W12024   8.440   3.188   1.275  0.2549 -0.0554 -0.0255
 1765W        W12025   8.346  14.291   1.399 -0.0903  0.0493 -0.0238
 1766W        W12026   7.243   3.437   0.261 -0.0338 -0.1038 -0.0124
 1767W        W12027  11.533  15.173   7.475  0.2540  0.2329  0.0473
 1768W        W12028  10.734  13.520   0.088  0.0696  0.0215 -0.2051
 1769W        W12029  11.253  15.678   6.761  0.1031 -0.0212 -0.1199
 1770W        W12030   9.898   2.384   8.194  0.0342 -0.1596 -0.2473
 1771W        W12031  13.623  15.838   1.963  0.0515  0.0138  0.0952
 1772W        W12032   7.068   5.941   7.701 -0.1173  0.1118 -0.1055
 1773W        W12033  13.087   3.463   8.641 -0.1194 -0.0729 -0.0829
 1774W        W12034   6.326  15.928   6.107  0.3885 -0.0968  0.4258
 1775W        W12035  10.711   1.160   7.486  0.0753 -0.0375  0.0112
 1776W        W12036   5.494   0.809   0.922  0.1726 -0.0353 -0.1726
 1777W        W12037  13.331   7.161   7.270  0.0883 -0.3817  0.2546
 1778W        W12038   2.949  14.953   1.951 -0.3302  0.0397 -0.1305
 1779W        W12039  10.992  14.598   8.447 -0.1429 -0.2096 -0.1594
 1780W        W12040  13.306   2.330   7.559 -0.0746 -0.0018  0.1404
 1781W        W12041   3.341  14.064   8.455  0.2782 -0.0899  0.1448
 1782W        W12042  16.233  11.757   8.431 -0.0109 -0.0201 -0.2392
 1783W        W12043   7.416   1.119   1.582  0.2259  0.0530 -0.3433
 1784W        W12044  13.952   2.108   6.193  0.0813  0.0799  0.0000
 1785W        W12045   9.524   6.447   8.109  0.0552  0.0219  0.0521
 1786W        W12046  11.991   0.936   8.328  0.3143 -0.0723 -0.0652
 1787W        W12047   2.489  12.106   7.692  0.0125 -0.1308 -0.0410
 1788W        W12048  15.413   2.676   7.497  0.0088  0.0447  0.1020
 1789W        W12049  12.678   7.490   6.144 -0.0561 -0.0603  0.0784
 1790W        W12050  12.471   1.942   8.224  0.2898 -0.1785 -0.3036
 1791W        W12051  14.966   0.561   0.245 -0.1395  0.1184  0.1220
 1792W        W12052   7.992  13.839   7.982  0.0530 -0.0169  0.0200
 1793W        W12053   9.997   5.407   7.152  0.0174 -0.3478 -0.0491
 1794W        W12054   4.374  13.652   8.597  0.0919  0.0054  0.1039
 1795W        W12055   9.414  14.050   6.730 -0.0805  0.2024 -0.1238
 1796W        W12056  11.322   3.663   7.400  0.2579 -0.1137 -0.2417
 1797W        W12057  15.323  15.470   1.476  0.3292  0.0872 -0.4346
 1798W        W12058  12.568   5.749   0.290  0.1341  0.2424  0.0661
 1799W        W12059   9.398   2.710   0.535 -0.2295  0.1222  0.0526
 1800W        W12060   6.973   7.078   0.479  0.0953  0.1933  0.0419
 1801W        W12061  13.252   1.260   1.476  0.1137  0.1191 -0.1056
 1802W        W12062  11.212   4.637   7.171 -0.0121 -0.1730 -0.2836
 1803W        W12063   0.520   1.297   7.948 -0.0563  0.0756  0.3469
 1804W        W12064   4.126   6.757   1.446 -0.1447  0.1281 -0.3380
 1805W        W12065   9.915  11.206   0.659 -0.2250  0.1690  0.1557
 1806W        W12066  15.208   0.733   1.196 -0.1352 -0.0114 -0.4303
 1807W        W12067   9.578  11.591   0.732 -0.1263 -0.0585  0.0745
 1808W        W12068  11.440  15.849   7.273  0.0322  0.1560  0.0058
 1809W        W12069  13.776   5.919   7.729  0.1002 -0.1032 -0.1156
 1810W        W12070  15.551   4.146   0.991  0.0441 -0.1908  0.2637
 1811W        W12071   0.802   0.451   1.051  0.1268  0.2979 -0.0177
 1812W        W12072   8.767  13.295   7.357 -0.1050  0.1225  0.0481
 1813W        W12073  14.017   1.386   7.165 -0.1049 -0.3319 -0.0275
 1814W        W12074  15.328  16.510   1.389 -0.2554  0.1518 -0.0164
 1815W        W12075  14.670   0.134   7.617 -0.0492 -0.5375 -0.2248
 1816W        W12076   9.395   4.288   2.320  0.2476  0.0814  0.3963
 1817W        W12077   7.863   2.989   2.322 -0.1455 -0.2319 -0.1738
 1818W        W12078   8.742   3.554   0.510  0.2877 -0.0061  0.0784
 1819W        W12079  12.623   2.674   2.500  0.2774  0.2280  0.0563
 1820W        W12080  15.371   3.350   6.783 -0.3847  0.0123 -0.0663
 1821W        W12081   8.917   1.686   7.360 -0.2553  0.0206  0.0762
 1822W        W12082   9.866   7.755   7.557 -0.0300 -0.0914 -0.1814
 1823W        W12083   3.397   4.038   8.278  0.0125  0.2236  0.2098
 1824W        W12084  15.810   4.832   6.004  0.0541  0.4111  0.0069
 1825W        W12085   9.292   7.508   0.848  0.0924 -0.2502  0.3395
 1826W        W12086   8.393   3.836   1.638 -0.2208  0.1057 -0.0572
 1827W        W12087  11.765   4.621   7.063 -0.2151  0.3187 -0.0058
 1828W        W12088   1.750   5.342   8.652 -0.0880  0.0669 -0.1009
 1829W        W12089  16.128   7.775   1.166 -0.0785 -0.0992  0.3553
 1830W        W12090   7.712  13.413   7.904  0.0493  0.2800 -0.1583
 1831W        W12091  11.411   7.706   0.538  0.0846  0.1726  0.2358
 1832W        W12092  11.955   3.832   0.025  0.2561 -0.1503 -0.1440
 1833W        W12093  15.964   2.695   0.481 -0.0244  0.1389  0.2346
 1834W        W12094   1.850   0.908   0.380 -0.1122 -0.1430  0.1474
 1835W        W12095  16.027   0.577   7.498  0.2234  0.0783 -0.1895
 1836W        W12096  12.722   4.832   1.276  0.0460  0.1599  0.1268
 1837W        W12097  11.073   3.934   1.523  0.0551 -0.0436 -0.0234
 1838W        W12098  14.791   0.961   6.903  0.0061 -0.3796 -0.0619
 1839W        W12099  11.876   0.668   7.887  0.0855 -0.2113 -0.0876
 1840W        W12100   0.352  10.714   7.600  0.0389  0.0427  0.0694
 1841W        W12101  16.239   6.372   6.642  0.0862 -0.0989 -0.3091
 1842W        W12102  14.173  15.110   7.426  0.1262 -0.0278  0.1695
 1843W        W12103  13.971   3.123   8.595  0.0304 -0.3122 -0.0977
 1844W        W12104  14.011   1.587   2.142  0.0494  0.1531  0.0910
 1845W        W12105   2.473  15.025   8.257  0.0734 -0.1132  0.2543
 1846W        W12106  13.166   0.091   8.268 -0.1993 -0.1631 -0.1000
 1847W        W12107  12.981   4.380   7.440  0.0462  0.0409 -0.2384
 1848W        W12108   0.739   3.725   6.351 -0.2704  0.0974 -0.0540
 1849W        W12109   9.364   1.832   7.149 -0.2287  0.1360 -0.0147
 1850W        W12110  11.140   7.470   1.513  0.0076  0.1461  0.0117
 1851W        W12111   0.621   5.614   8.081 -0.0898 -0.3172  0.2019
 1852W        W12112  16.209   1.858   7.025  0.0290  0.3126  0.0961
 1853W        W12113  15.733  16.214   1.219 -0.1105 -0.3713  0.1805
 1854W        W12114  11.601   0.069   1.764 -0.2164 -0.1976 -0.1581
 1855W        W12115  14.912   3.945   7.842  0.2053 -0.2101 -0.1316
 1856W        W12116   1.495   3.805   0.024  0.2846 -0.0198 -0.2244
 1857W        W12117  16.549   3.050   7.010 -0.2144 -0.0892 -0.2349
 1858W        W12118  14.826   0.047   6.537  0.3757 -0.2238 -0.0185
 1859W        W12119   0.703   4.785   1.902  0.3524 -0.1394 -0.1936
 1860W        W12120  14.461   3.493   2.286 -0.0309  0.1456  0.0062
 1861W        W12121   0.024   1.741   1.964 -0.2361  0.1577 -0.0205
 1862W        W12122  14.386   4.740   6.468  0.1078  0.2935  0.2248
 1863W        W12123  11.062   1.960   0.529 -0.0643 -0.3380 -0.1271
 1864W        W12124  12.309   1.128   6.735  0.0313  0.1970  0.2743
 1865W        W12125  16.081  16.458   8.336  0.0014 -0.1168  0.0225
 1866W        W12126   3.578   1.953   6.764  0.0423 -0.1229  0.2202
 1867W        W12127  13.578  15.929   7.958 -0.1738  0.3392  0.0245
 1868W        W12128  16.269   5.123   0.806 -0.1337  0.2907 -0.0423
 1869W        W12129  13.844   2.917   1.569 -0.1235  0.1841  0.0744
 1870W        W12130  12.414   2.729   6.206 -0.0457  0.1121 -0.0329
 1871W        W12131   0.418   5.793   0.412  0.5320 -0.0763  0.1845
 1872W        W12132  14.469   5.559   0.126  0.0813  0.1820 -0.3732
 1873W        W12133  10.069   0.749   6.729  0.1054 -0.2406 -0.1592
 1874W        W12134   2.930   9.546   7.561  0.0514  0.0317  0.0192
 1875W        W12135  14.833   6.316   0.735  0.0844  0.1676 -0.1539
 1876W        W12136  13.791   9.543   1.325 -0.0410 -0.0198  0.1817
 1877W        W12137  15.869   6.790   6.592 -0.2360  0.0706 -0.1470
 1878W        W12138  14.533   0.047   8.111  0.1583  0.0378 -0.0316
 1879W        W12139   0.469   1.708   2.017 -0.1346  0.3148  0.0331
 1880W        W12140  13.248   4.418   8.517 -0.1335 -0.0055 -0.0764
 1881W        W12141   5.589   4.198   8.401 -0.1423  0.0870 -0.3486
 1882W        W12142  12.480   1.510   1.267 -0.1044  0.2494  0.1374
 1883W        W12143  13.959   0.197   7.061 -0.4156 -0.0165 -0.0386
 1884W        W12144  16.150   4.714   0.504  0.2381  0.1526 -0.2542
 1885W        W12145  13.286   2.706   0.298 -0.0635  0.0888  0.0154
 1886W        W12146  14.952   7.650   0.140  0.2140  0.2875  0.1361
 1887W        W12147   1.303  15.026   7.644 -0.1573  0.2037  0.3219
 1888W        W12148   6.007   0.426   1.664 -0.1711 -0.1706 -0.0061
 1889W        W12149  13.152  16.267   7.404 -0.2986 -0.2076  0.0648
 1890W        W12150  16.365   1.886   7.710  0.1198 -0.0078 -0.1053
 1891W        W12151  14.219   1.137   1.593 -0.0481 -0.0497 -0.2134
 1892W        W12152   0.945   1.166   7.722  0.2374  0.2884 -0.0335
 1893W        W12153   2.879   2.722   6.793  0.0077  0.0869  0.0747
 1894W        W12154   5.937   4.964   8.182  0.1582 -0.1295  0.1467
 1895W        W12155  12.910   0.838   0.075  0.2970 -0.3955 -0.0312
 1896W        W12156  16.494   2.924   1.650  0.1662 -0.0204  0.3038
 1897W        W12157   4.708   7.759   8.475 -0.0033  0.1618  0.2311
 1898W        W12158  10.516   3.970   1.598  0.0527 -0.0777  0.0300
 1899W        W12159  12.050   5.137   1.879 -0.0147  0.1023  0.2128
 1900W        W12160   2.446   0.339   7.995  0.3030  0.3053  0.1342
 1901W        W12161  15.304   2.414   0.857 -0.1698  0.1076  0.0010
 1902W        W12162  16.305  16.546   1.663 -0.0361 -0.0821 -0.0813
 1903W        W12163  12.717  10.564   7.846 -0.1636  0.1025 -0.2589
 1904W        W12164   3.443   1.893   0.115  0.3232 -0.0788  0.0923
 1905W        W12165  11.959   3.701   1.638 -0.2063 -0.1424  0.0631
 1906W        W12166  13.549   0.449   6.852 -0.0818  0.1338  0.3674
 1907W        W12167  16.545   2.104   7.272 -0.2511  0.2357 -0.0302
 1908W        W12168  11.232   3.152   7.445 -0.5329  0.2456  0.2493
 1909W        W12169  14.245   0.394   0.849  0.1244  0.2294  0.2155
 1910W        W12170   1.422   5.644   8.429  0.1175 -0.0876  0.5583
 1911W        W12171   7.222   2.731   0.260  0.0181 -0.2534 -0.2156
 1912W        W12172   0.259  15.900   0.320  0.1449 -0.2065 -0.1923
 1913W        W12173   1.427   6.834   7.704 -0.1102  0.1354  0.1208
 1914W        W12174   1.596  15.399   7.592 -0.0825  0.0428 -0.0732
 1915W        W12175  12.743   4.128   2.125  0.1016 -0.0502  0.1896
 1916W        W12176   0.795  16.207   6.923  0.0807 -0.0422 -0.0539
 1917W        W12177  15.126   1.161   6.182 -0.0411 -0.2523  0.1421
 1918W        W12178  10.258  16.421   8.010 -0.3333  0.0463  0.0717
 1919W        W12179  13.474   1.625   1.138 -0.0722 -0.2178  0.1092
 1920W        W12180   2.042  14.885   8.370  0.2010  0.0541  0.1470
 1921W        W12181   0.910  14.359   1.137 -0.0887  0.0667  0.0589
 1922W        W12182  12.091   1.916   1.264  0.1196 -0.0307 -0.0621
 1923W        W12183  13.576   6.238   7.360  0.0181 -0.0965  0.2317
 1924W        W12184   2.286   2.986   8.537 -0.3235  0.0067 -0.0672
 1925W        W12185  14.814  15.729   0.348 -0.0793 -0.0779  0.2279
 1926W        W12186  16.351   1.487   8.030  0.3767 -0.2811 -0.1526
 1927W        W12187   9.165  16.518   1.760  0.1558  0.0365  0.4514
 1928W        W12188  10.378   4.083   0.276  0.1127 -0.1364 -0.3961
 1929W        W12189  16.388   0.766   6.773  0.1988 -0.1250 -0.1805
 1930W        W12190  16.254   4.876   7.328  0.0292 -0.0813  0.2528
 1931W        W12191  13.066   1.443   0.701  0.0336 -0.2210 -0.0521
 1932W        W12192   5.992   4.695   7.605 -0.1407  0.1128 -0.0859
 1933W        W12193  10.858   1.701   8.526 -0.0308  0.1920 -0.2892
 1934W        W12194   8.803   5.287   0.954 -0.1243  0.1299  0.1909
 1935W        W12195   9.701   6.838   7.214  0.1957  0.2065  0.1990
 1936W        W12196   9.992   4.022   8.527 -0.1390 -0.1641  0.1550
 1937W        W12197  10.637   1.456   7.040 -0.1011  0.0563 -0.0608
 1938W        W12198  12.503   0.286   7.260  0.1252 -0.2696  0.0642
 1939W        W12199  12.553   0.698   1.373  0.3602 -0.2569  0.0238
 1940W        W12200  11.449  16.514   7.479  0.2045 -0.3035 -0.0901
 1941W        W12201  15.786   4.557   1.878 -0.3187 -0.0952  0.1411
 1942W        W12202   9.722   0.096   7.923 -0.0726 -0.3341  0.0328
 1943W        W12203  14.984   4.959   8.225  0.2282  0.1139  0.3369
 1944W        W12204   9.990  15.228   7.841 -0.0500  0.1477  0.0961
 1945W        W12205  16.126   2.200   5.839 -0.0546 -0.0865  0.5989
 1946W        W12206   5.076  11.837   1.401 -0.1730  0.0046  0.1201
 1947W        W12207   1.278  12.931   0.711  0.0256 -0.1557 -0.0394
 1948W        W12208   7.367  16.386   6.687  0.0842 -0.0856  0.0013
 1949W        W12209   1.382   2.804   8.252 -0.2594 -0.0483  0.1399
 1950W        W12210  14.586   2.690   6.542 -0.0505  0.2024  0.0702
 1951W        W12211  14.451   4.934   2.065 -0.0169 -0.1311 -0.1974
 1952W        W12212   0.177  14.116   6.440  0.2222  0.2766 -0.0526
 1953W        W12213  10.911  15.771   8.590 -0.0496 -0.1234  0.1641
 1954W        W12214   0.545   0.950   7.400  0.2804  0.1802  0.0629
 1955W        W12215  15.339   2.074   6.650  0.6200 -0.1110  0.2216
 1956W        W12216   7.637   5.726   0.240 -0.0786 -0.0777  0.0422
 1957W        W12217  11.103   5.444   7.935  0.0382  0.1754  0.1847
 1958W        W12218  15.959   0.035   7.497 -0.1448 -0.0930 -0.1098
 1959W        W12219   0.621   8.265   1.345 -0.1025 -0.2077  0.1421
 1960W        W12220  10.835   6.723   6.379  0.1397  0.0081 -0.1965
 1961W        W12221  13.655   3.459   2.879 -0.1804 -0.2608  0.0642
 1962W        W12222  14.547   0.179   7.129  0.0053 -0.1228  0.0377
 1963W        W12223   0.361   7.668   0.565 -0.0519  0.0523  0.1095
 1964W        W12224  13.128   4.987   7.208 -0.0618 -0.0393 -0.1476
 1965W        W12225   0.671  14.273   6.245 -0.1391  0.0867 -0.0083
 1966W        W12226   5.255  14.514   2.121  0.1073  0.1676  0.1893
 1967W        W12227   2.741  14.878   6.325 -0.1480 -0.4752  0.0838
 1968W        W12228  15.868   2.941   7.438  0.0807  0.4560  0.0631
 1969W        W12229   4.843  14.808   1.971 -0.0744  0.1755  0.0271
 1970W        W12230  16.244   5.609   6.255 -0.1012 -0.1463 -0.0599
 1971W        W12231   0.688  12.224   0.414  0.1285 -0.0957  0.0721
 1972W        W12232  14.275  15.813   7.938  0.0752  0.1166  0.1433
 1973W        W12233   0.794  10.129   7.064 -0.3631  0.0277  0.1073
 1974W        W12234  12.826   8.583   6.006 -0.0552  0.1004 -0.1234
 1975W        W12235   2.220  12.153   6.853  0.2091 -0.1950 -0.1205
 1976W        W12236  12.720   6.227   6.888 -0.0098 -0.0011  0.1381
 1977W        W12237   3.810   3.756   1.840  0.3391 -0.2714 -0.0723
 1978W        W12238   0.826  13.979   1.650  0.3320 -0.1026 -0.1797
 1979W        W12239   9.894  10.461   7.465  0.1589 -0.1752  0.0581
 1980W        W12240   2.663   7.912   0.877  0.1786  0.1927 -0.0190
 1981W        W12241   4.586   2.806   1.289  0.2135  0.0871  0.2095
 1982W        W12242   0.218   1.641   7.775  0.0327  0.0273 -0.1074
 1983W        W12243   2.315   3.246   1.700  0.0560 -0.0985 -0.0556
 1984W        W12244   0.651   6.963   0.331 -0.2112 -0.1492  0.3707
 1985W        W12245   0.345  11.811   2.081 -0.3418  0.1866  0.2507
 1986W        W12246  16.246  11.205   0.959 -0.0038  0.1152  0.1195
 1987W        W12247   1.412   6.316   0.580 -0.1276  0.0030  0.1836
 1988W        W12248   2.502   3.885   0.407 -0.1277 -0.0834  0.4246
 1989W        W12249  16.161   3.745   7.748 -0.1173 -0.1695  0.0128
 1990W        W12250   0.931   4.624   7.785  0.1593  0.1449 -0.0942
 1991W        W12251   0.646  11.330   2.378  0.0400  0.0883  0.2358
 1992W        W12252  14.642   4.310   6.531 -0.0431 -0.2038  0.3594
 1993W        W12253   0.604   6.545   7.580 -0.1636 -0.0527 -0.1804
 1994W        W12254  16.411  16.159   8.637 -0.1107 -0.0253  0.0459
 1995W        W12255  14.640   9.711   1.616 -0.0528  0.3669  0.1741
 1996W        W12256   8.209   5.210   8.439 -0.1334 -0.1703  0.0483
 1997W        W12257   1.570   9.319   0.445  0.1957 -0.1999  0.2726
 1998W        W12258  14.609   6.781   6.966  0.3164 -0.1077  0.0007
 1999W        W12259  14.309   5.943   7.852 -0.1062 -0.2357  0.1408
 2000W        W12260   6.169  14.186   2.176  0.1854 -0.1589  0.1820
 2001W        W12261   2.142   3.317   7.460  0.0824  0.0780 -0.2611
 2002W        W12262   3.064   5.059   7.663 -0.0052 -0.1547  0.2075
 2003W        W12263   2.312   5.247   6.579 -0.1737  0.0145 -0.0112
 2004W        W12264  15.755  13.368   0.498 -0.0761  0.0084  0.0284
 2005W        W12265   5.931   5.812   6.720 -0.0498 -0.0336 -0.0242
 2006W        W12266  16.106   6.088   0.793  0.3684  0.1671 -0.4424
 2007W        W12267   6.232   9.464   7.673 -0.0088  0.1527 -0.2835
 2008W        W12268   0.395   7.019   7.404  0.0502 -0.1198 -0.1738
 2009W        W12269   4.919   1.740   8.471 -0.2194 -0.1041 -0.4145
 2010W        W12270   2.836   4.381   0.100 -0.1108 -0.2410  0.2285
 2011W        W12271   3.067   7.022   7.145  0.1088 -0.1354  0.2720
 2012W        W12272  16.538   4.051   8.226  0.1362 -0.2569  0.0119
 2013W        W12273   6.228  12.240   7.423  0.0844 -0.0036  0.1634
 2014W        W12274   8.194   6.523   7.264  0.0194 -0.1643  0.0446
 2015W        W12275   9.925   4.437   6.984 -0.1361  0.0724  0.0185
 2016W        W12276  15.207  10.720   7.867 -0.0906  0.2082  0.0884
 2017W        W12277   3.127   6.045   1.637 -0.0408  0.1400  0.0168
 2018W        W12278   1.380   8.096   6.925 -0.0481  0.0712  0.0192
 2019W        W12279   4.781   4.378   1.762 -0.1461 -0.3377 -0.0932
 2020W        W12280   1.135   6.082   6.627 -0.2567 -0.3219 -0.0902
 2021W        W12281   3.143   2.493   2.400 -0.2438 -0.0924  0.0070
 2022W        W12282   2.121  16.243   8.669 -0.1412  0.1375 -0.1973
 2023W        W12283   4.235  14.439   8.270  0.0845  0.0340 -0.0039
 2024W        W12284  16.535   7.616   8.037  0.1995 -0.2903  0.1167
 2025W        W12285   3.052   3.430   7.792 -0.1483  0.2817 -0.0023
 2026W        W12286   2.882   7.034   0.193 -0.0205 -0.0323 -0.2104
 2027W        W12287   3.316   3.139   8.519 -0.1850  0.1229 -0.1396
 2028W        W12288   5.892   4.171   7.620  0.3199 -0.1024 -0.2602
 2029W        W12289  14.740   9.186   0.579  0.4242 -0.3558  0.0723
 2030W        W12290   1.025   6.876   1.564 -0.1812  0.2117 -0.1652
 2031W        W12291   4.392   1.793   0.250 -0.0731 -0.1236 -0.1160
 2032W        W12292   1.738  13.740   8.346 -0.2431  0.1040  0.1127
 2033W        W12293   6.086  11.800   8.384 -0.0654 -0.0826 -0.0694
 2034W        W12294   7.596   4.178   0.959 -0.0994 -0.0382  0.0009
 2035W        W12295   4.268   2.133   6.138  0.1385  0.0215  0.0762
 2036W        W12296  16.558   8.993   7.455  0.0377 -0.0375 -0.0642
 2037W        W12297   0.735   2.067   7.968 -0.1029 -0.1388  0.3680
 2038W        W12298   6.294  11.630   1.716  0.1240 -0.0768  0.3744
 2039W        W12299   4.241   9.980   0.944 -0.0723 -0.2399  0.0508
 2040W        W12300   6.552   9.208   1.980  0.0871 -0.0437  0.0239
 2041W        W12301  10.991  10.617   0.125 -0.1573  0.0992  0.3892
 2042W        W12302   4.604   0.006   1.713  0.1139  0.1157  0.1169
 2043W        W12303   1.585   2.957   0.594  0.0303 -0.1979 -0.3021
 2044W        W12304  15.076  16.040   6.705 -0.2328  0.0841 -0.0323
 2045W        W12305  13.025  11.507   8.633  0.2887 -0.0425  0.2809
 2046W        W12306  14.481   4.629   8.370 -0.5603  0.4088  0.0202
 2047W        W12307   4.830   2.361   1.383 -0.1521 -0.1186 -0.0323
 2048W        W12308  16.144   7.968   7.537  0.1103 -0.0889 -0.1063
 2049W        W12309   6.364  10.437   1.086  0.1164  0.1731  0.0142
 2050W        W12310   3.845   9.315   0.921  0.0393 -0.1040 -0.4091
 2051W        W12311   1.048   5.388   8.147  0.3971 -0.0810  0.1012
 2052W        W12312   3.927   6.342   7.427  0.0385 -0.0439 -0.2664
 2053W        W12313   1.149   0.079   1.246 -0.0348 -0.2419 -0.1433
 2054W        W12314   5.887   2.017   2.011  0.0688 -0.2115 -0.1413
 2055W        W12315   1.360   5.898   7.571 -0.2157 -0.2897 -0.0412
 2056W        W12316   2.337   4.359   0.112  0.2797  0.2426 -0.0017
 2057W        W12317   3.585   1.042   1.937  0.0348  0.2707 -0.0306
 2058W        W12318  16.328   1.003   7.295 -0.1062  0.1423  0.1960
 2059W        W12319   2.307   8.913   8.152 -0.0264 -0.3088 -0.1127
 2060W        W12320   5.447   0.107   7.977  0.2558 -0.0583 -0.1560
 2061W        W12321  11.503   3.657   0.775 -0.2060 -0.0448 -0.0709
 2062W        W12322   9.858   5.272   0.730  0.3834 -0.1355  0.2871
 2063W        W12323   6.097   2.470   0.802  0.0230 -0.0006 -0.1862
 2064W        W12324   1.136   5.464   1.156 -0.0079  0.3799 -0.1043
 2065W        W12325  12.931   9.590   8.488  0.1029 -0.0015 -0.3189
 2066W        W12326  15.308   2.008   8.393 -0.0274  0.0259 -0.1045
 2067W        W12327  16.012   4.626   6.966 -0.2504 -0.2739  0.0620
 2068W        W12328   3.276   3.711   1.801 -0.1668  0.1794  0.0340
 2069W        W12329   5.947   3.869   6.652  0.2031 -0.1039 -0.1707
 2070W        W12330  10.333   5.920   0.234 -0.0745  0.1264  0.1008
 2071W        W12331   5.231   2.368   1.003 -0.1812 -0.0468 -0.0392
 2072W        W12332  14.179   9.829   6.949  0.3335 -0.0834  0.3544
 2073W        W12333   5.385   2.521   0.392 -0.3872  0.1212  0.0298
 2074W        W12334   1.106   8.364   0.377  0.2444 -0.1419  0.1394
 2075W        W12335   3.616   5.982   6.057  0.2046  0.0614 -0.1455
 2076W        W12336   0.732   3.442   8.188 -0.0408  0.0752 -0.0827
 2077W        W12337   2.340  10.749   2.048  0.0940  0.0077 -0.0893
 2078W        W12338   0.680   0.606   6.771  0.3334  0.1440  0.0317
 2079W        W12339   3.522  15.942   1.895  0.1283 -0.0323  0.1669
 2080W        W12340   1.047  15.679   6.963 -0.0397  0.1643  0.0792
 2081W        W12341   0.274   7.869   8.627  0.0428  0.0384  0.0199
 2082W        W12342   7.821   4.729   6.757 -0.0915 -0.0166 -0.1143
 2083W        W12343   4.687   1.560   1.552 -0.0123 -0.2504 -0.0754
 2084W        W12344  16.038   4.155   1.183  0.3012  0.1638  0.1596
 2085W        W12345  15.886   5.642   1.037  0.1870  0.1310  0.0355
 2086W        W12346   0.185   3.102   7.482 -0.0613 -0.1184 -0.1240
 2087W        W12347  13.108  15.744   2.114 -0.2129 -0.0194  0.1159
 2088W        W12348   4.957   4.059   7.882  0.2088 -0.0624 -0.1316
 2089W        W12349   9.885   3.319   1.222  0.2743 -0.0348  0.0054
 2090W        W12350   1.203   7.419   6.350 -0.1406  0.0686 -0.2964
 2091W        W12351   5.290   1.980   0.177  0.5834 -0.1066  0.0330
 2092W        W12352   2.326  11.626   7.540 -0.2302  0.1496  0.2811
 2093W        W12353   0.504  10.184   8.091  0.1603 -0.0555 -0.1393
 2094W        W12354   2.499  10.349   7.503  0.0951 -0.2219 -0.0848
 2095W        W12355   4.328   1.126   6.986 -0.1961 -0.1762 -0.2414
 2096W        W12356  13.795   4.338   0.932 -0.1974 -0.1358 -0.0933
 2097W        W12357   0.567  10.869   2.098 -0.3433 -0.1168 -0.0915
 2098W        W12358   4.183   5.116   0.082  0.3166  0.1535 -0.1112
 2099W        W12359   6.958   7.914   1.552 -0.1083 -0.0726 -0.0228
 2100W        W12360  15.104   0.336   1.533  0.3412 -0.1895  0.1699
 2101W        W12361  15.549   2.842   7.963  0.0382 -0.3133  0.3700
 2102W        W12362   3.800   5.990   8.431 -0.0447  0.0505  0.2558
 2103W        W12363  14.384  12.692   7.247 -0.1649 -0.1782  0.1031
 2104W        W12364   2.937   3.965   8.483 -0.3205 -0.3723  0.2250
 2105W        W12365   2.325   3.358   1.041  0.1018  0.0517  0.0399
 2106W        W12366   0.463   7.980   1.749  0.1407  0.0807 -0.1356
 2107W        W12367   1.966   5.904   6.769  0.1677 -0.0679  0.0934
 2108W        W12368  13.540  15.135   6.122 -0.1916  0.3812  0.0902
 2109W        W12369  13.956   8.640   0.272 -0.2715 -0.0123 -0.0153
 2110W        W12370   7.008   9.432   2.193  0.2362  0.1832  0.0759
 2111W        W12371   1.333   3.266   1.211 -0.4228 -0.0645 -0.1901
 2112W        W12372   1.517  13.171   7.175  0.2896  0.2071  0.1999
 2113W        W12373   2.701   6.127   8.644  0.2080 -0.0726 -0.0590
 2114W        W12374   3.285   6.402   6.852  0.0734 -0.1977 -0.1798
 2115W        W12375  15.935   8.442   1.212 -0.2968 -0.3747  0.1628
 2116W        W12376  12.937   6.514   0.740  0.1985  0.3264  0.0483
 2117W        W12377  15.198   6.608   2.391 -0.2438 -0.3259  0.0540
 2118W        W12378   3.916  10.304   6.905  0.1395  0.0128  0.1618
 2119W        W12379   0.216   0.631   7.053  0.0832 -0.3477 -0.0742
 2120W        W12380  15.009   2.957   0.142  0.0601 -0.1262  0.2700
 2121W        W12381   1.276   5.991   1.880 -0.0438 -0.1843 -0.0879
 2122W        W12382  14.975   3.622   1.400  0.1420  0.0277 -0.0133
 2123W        W12383   3.897   4.830   0.427  0.2910  0.2434 -0.1065
 2124W        W12384  15.715   1.645   2.100 -0.1016  0.2227 -0.1175
 2125W        W12385   0.176   3.619   7.226  0.2042  0.0836  0.0118
 2126W        W12386   3.660   2.635   7.505 -0.1660  0.1872  0.2538
 2127W        W12387  14.686   7.156   8.532 -0.0283 -0.0266  0.0462
 2128W        W12388   2.893   2.864   7.637  0.3955 -0.3728  0.0991
 2129W        W12389   3.410  14.391   0.242 -0.0631 -0.2714  0.2658
 2130W        W12390   1.112   2.816   2.462 -0.0604  0.0239  0.3192
 2131W        W12391   3.286  15.281   7.280  0.2939 -0.1166  0.2876
 2132W        W12392  15.077   8.846   7.764 -0.1622  0.1735  0.0292
 2133W        W12393  12.176   0.940   0.597 -0.1413 -0.0241 -0.1187
 2134W        W12394  16.047   3.765   6.667 -0.2343  0.2606 -0.0097
 2135W        W12395   4.030   6.666   8.016 -0.3556  0.1405  0.3749
 2136W        W12396   0.211   1.874   8.540 -0.1262  0.1104 -0.0981
 2137W        W12397   1.146   3.069   7.897 -0.0798  0.0201 -0.0905
 2138W        W12398   3.226   6.599   0.025 -0.0064 -0.0587  0.0917
 2139W        W12399   2.320  14.401   8.415  0.0604 -0.1585 -0.1642
 2140W        W12400   0.288  15.643   6.473  0.1012  0.3736 -0.0653
 2141W        W12401   3.702   3.500   7.073 -0.0661  0.2995  0.0645
 2142W        W12402   4.366   3.901   7.788 -0.2392 -0.2279  0.0543
 2143W        W12403   7.655   1.113   7.807 -0.0429 -0.4925 -0.0020
 2144W        W12404   9.788   5.242   2.380 -0.1709  0.1098 -0.1998
 2145W        W12405   3.853   4.762   2.396  0.4541  0.2413  0.2766
 2146W        W12406   1.979   9.230   7.954  0.0061 -0.0697  0.1571
 2147W        W12407  10.481   4.746   1.924 -0.1629 -0.2934  0.1297
 2148W        W12408   2.124   4.679   7.885 -0.2465 -0.0026  0.2657
 2149W        W12409  12.281   1.643   6.793  0.3636 -0.0676 -0.0784
 2150W        W12410  11.268  10.008   0.690  0.1564 -0.1314 -0.0780
 2151W        W12411   0.174  10.216   6.560  0.1028  0.3113 -0.1822
 2152W        W12412   0.494   7.010   1.653 -0.2509 -0.2053  0.1424
 2153W        W12413  13.034   5.639   0.165 -0.0942 -0.1006 -0.0346
 2154W        W12414   8.357   0.387   8.645 -0.1615 -0.7547  0.2275
 2155W        W12415  14.855   6.957   1.199 -0.0294  0.4776 -0.0040
 2156W        W12416  16.388   8.972   8.041  0.0649  0.2171  0.0679
 2157W        W12417   0.717   9.434   2.762 -0.0224  0.0826  0.1094
 2158W        W12418   1.993   3.977   1.125 -0.1553  0.0780  0.0505
 2159W        W12419  16.284   6.579   8.115 -0.2836  0.1293  0.0683
 2160W        W12420   2.974   7.835   7.128  0.0207  0.1790  0.1551
 2161W        W12421   3.815   5.682   7.418 -0.0730 -0.2058 -0.2210
 2162W        W12422   1.416   2.727   7.503  0.2069 -0.1895 -0.2497
 2163W        W12423   5.228  11.639   8.324  0.0688 -0.1998 -0.1082
 2164W        W12424   7.171   5.545   1.890  0.0466 -0.0117 -0.0305
 2165W        W12425   7.480   2.902   7.012 -0.0700  0.2839 -0.2350
 2166W        W12426   1.940   0.410   1.946  0.1765  0.1197 -0.0909
 2167W        W12427  16.374   6.770   8.572 -0.0189  0.3786  0.0250
 2168W        W12428   8.450   5.946   8.370 -0.1766 -0.0823  0.4684
 2169W        W12429   0.075   5.302   7.442  0.1040 -0.2942  0.0583
 2170W        W12430   2.385   8.687   1.351 -0.1474  0.1819 -0.1329
 2171W        W12431   1.511  13.681   0.098  0.2563 -0.2050  0.0098
 2172W        W12432   6.236   8.171   6.980 -0.5369  0.1795 -0.1206
 2173W        W12433   2.194   7.681   0.522 -0.3771  0.0033 -0.0978
 2174W        W12434  14.089   3.614   7.221 -0.2365 -0.0100  0.1661
 2175W        W12435   0.195   2.191   1.915  0.0469 -0.0265 -0.2618
 2176W        W12436   9.305   4.653   7.191 -0.0736  0.1080  0.1297
 2177W        W12437   0.292   8.911   0.890  0.1268  0.1786 -0.1555
 2178W        W12438   3.591  10.940   8.616 -0.0072 -0.0286  0.1169
 2179W        W12439   4.004   7.436   0.917  0.1126 -0.3255  0.0875
 2180W        W12440   9.883  12.723   8.086  0.2073 -0.1766 -0.2428
 2181W        W12441   2.719  16.469   0.186 -0.2404 -0.0599  0.2528
 2182W        W12442   0.780   7.934   0.699 -0.2731  0.1962 -0.1551
 2183W        W12443   0.928   6.367   8.499 -0.0695  0.0172  0.3232
 2184W        W12444   4.312   3.567   6.485  0.4715  0.0138 -0.1053
 2185W        W12445   5.898   1.041   7.900 -0.2811  0.2399  0.0220
 2186W        W12446   4.635   4.191   7.091  0.0216  0.0296 -0.2516
 2187W        W12447  11.882   3.881   0.511  0.0061  0.4009 -0.2516
 2188W        W12448   4.534   4.704   6.503  0.0959 -0.0404 -0.0193
 2189W        W12449   6.729   3.389   1.628 -0.0583  0.3966  0.1616
 2190W        W12450  16.585   2.955   1.090 -0.1576 -0.1693  0.2537
 2191W        W12451   5.013   1.904   1.688  0.2306  0.4033  0.0062
 2192W        W12452   7.552   6.180   7.798 -0.3992  0.4543  0.2096
 2193W        W12453   3.593   2.284   0.865  0.0025 -0.0867 -0.1516
 2194W        W12454   6.069   2.785   8.114 -0.0859  0.1958  0.2640
 2195W        W12455   3.423   6.297   2.395  0.2121  0.0583  0.0539
 2196W        W12456   2.199   2.518   8.476 -0.1823 -0.2114 -0.0954
 2197W        W12457   7.034   0.808   1.950 -0.2961 -0.0573 -0.2236
 2198W        W12458   0.098   3.138   6.513 -0.0021  0.0191  0.1381
 2199W        W12459   6.482   6.329   6.990 -0.1207  0.2457 -0.0143
 2200W        W12460   7.364   2.884   7.621 -0.2200 -0.0666  0.1260
 2201W        W12461   4.294  11.017   7.340 -0.0049  0.0592  0.0535
 2202W        W12462   3.610   6.177   1.450 -0.1996 -0.0384  0.0788
 2203W        W12463   1.426   3.700   0.647  0.0542 -0.1839  0.1335
 2204W        W12464   7.977   6.194   8.587  0.1222  0.0452 -0.0654
 2205W        W12465   4.102   0.831   7.445  0.1881 -0.0691 -0.1853
 2206W        W12466   0.574   6.473   1.795  0.3953 -0.1879 -0.3406
 2207W        W12467   3.407  14.180   7.531  0.0596 -0.1839  0.1811
 2208W        W12468   4.341  13.473   6.917 -0.0949  0.0409 -0.0793
 2209W        W12469  16.585   4.705   0.735  0.0557  0.2016  0.5970
 2210W        W12470   5.458  10.130   2.164  0.0283  0.2575  0.1686
 2211W        W12471   5.787   8.675   8.598  0.0766 -0.2021 -0.4250
 2212W        W12472   2.568   4.845   7.710  0.0281 -0.2255 -0.0963
 2213W        W12473  10.504   2.426   7.283 -0.1482  0.2974 -0.0822
 2214W        W12474   5.355   9.487   7.534 -0.0382 -0.1431 -0.4937
 2215W        W12475   4.148   3.005   1.440 -0.1054 -0.2643 -0.1093
 2216W        W12476   5.983   3.621   6.201 -0.2246  0.4028  0.0104
 2217W        W12477  10.357   4.339   7.794  0.1397  0.2445  0.2390
 2218W        W12478   8.784   8.750   1.138 -0.1580  0.3272  0.2640
 2219W        W12479   1.778   2.443   7.248 -0.0779 -0.2211  0.0603
 2220W        W12480   6.390  15.371   6.733  0.0510  0.0759  0.2604
 2221W        W12481  10.216   4.858   7.517 -0.0936 -0.1470 -0.1860
 2222W        W12482   3.865   3.242   1.789  0.2900 -0.1281  0.2349
 2223W        W12483   6.122   1.476   7.902  0.3348 -0.0518 -0.0412
 2224W        W12484   3.514   5.801   2.341  0.0954  0.0169 -0.2983
 2225W        W12485   7.169   6.700   8.168 -0.0826 -0.0248  0.2283
 2226W        W12486   5.348   5.592   0.352  0.1283  0.0190 -0.0358
 2227W        W12487   7.611   4.839   8.437 -0.1539 -0.2793 -0.0217
 2228W        W12488   6.520   5.643   2.285  0.0337 -0.1558 -0.0049
 2229W        W12489   6.657   0.715   7.081 -0.0709 -0.1463 -0.0971
 2230W        W12490   4.670   6.656   6.966  0.2727  0.2349 -0.0026
 2231W        W12491   7.469   7.058   0.302 -0.3016  0.0631  0.1064
 2232W        W12492   9.720   5.656   6.744  0.0340 -0.0776  0.0020
 2233W        W12493  16.516   4.138   1.495 -0.0091 -0.4158 -0.0146
 2234W        W12494   5.154   0.543   8.029  0.2903 -0.1669 -0.3269
 2235W        W12495   6.373   8.001   1.483 -0.1944 -0.2270 -0.1232
 2236W        W12496   3.439   2.853   2.024  0.2791 -0.0128  0.0266
 2237W        W12497   2.677  10.110   1.022 -0.2284  0.3322 -0.2256
 2238W        W12498   5.018   9.789   0.168  0.1422 -0.2467  0.0818
 2239W        W12499   0.454  10.843   0.509 -0.0036  0.0429 -0.1306
 2240W        W12500  10.139  13.148   7.821 -0.2728  0.0693  0.0336
 2241W        W12501  10.644  12.415   1.394  0.0337  0.1581 -0.0551
 2242W        W12502   2.864  11.589   0.573  0.2872 -0.0086  0.6733
 2243W        W12503   2.323   6.770   0.263  0.1763 -0.1497 -0.0957
 2244W        W12504   7.799   4.599   1.740  0.0662 -0.2598 -0.0121
 2245W        W12505   6.601   4.308   0.545  0.2395  0.2202 -0.0858
 2246W        W12506   4.340   8.627   6.795  0.0551  0.0929  0.1431
 2247W        W12507   5.731   0.488   8.063  0.1540  0.2867 -0.0679
 2248W        W12508   3.221   2.075   1.546 -0.1418  0.1828 -0.0104
 2249W        W12509   1.711   3.633   7.939  0.1836  0.1222  0.2988
 2250W        W12510   4.780   7.028   1.252 -0.2673 -0.0320  0.2974
 2251W        W12511   6.378  15.650   8.568 -0.1167  0.0093 -0.1138
 2252W        W12512   7.632   3.263   1.038 -0.2328  0.0777 -0.1599
 2253W        W12513   4.243   5.378   7.739  0.0079 -0.0894 -0.0576
 2254W        W12514  12.013  10.668   6.508 -0.0060 -0.0255 -0.1375
 2255W        W12515   8.189   2.606   0.036  0.0982 -0.0412  0.0821
 2256W        W12516   8.048   8.770   8.605 -0.1925  0.2763  0.0101
 2257W        W12517   8.114   5.336   7.515  0.1678 -0.2096 -0.1300
 2258W        W12518   6.478   3.584   6.933 -0.3910 -0.4080 -0.3846
 2259W        W12519   6.586  14.353   7.953  0.2683 -0.1386 -0.1884
 2260W        W12520   5.333   3.888   0.111  0.2094 -0.1907  0.1468
 2261W        W12521   7.152   6.208   8.129 -0.0874 -0.0519  0.2593
 2262W        W12522   0.709   5.076   6.855 -0.0949 -0.1362 -0.1230
 2263W        W12523  10.523   6.443   0.937 -0.2804  0.0325 -0.1432
 2264W        W12524   4.049   0.877   8.495 -0.0448 -0.0371 -0.1220
 2265W        W12525   0.856   3.613   8.606 -0.4145  0.0436  0.2928
 2266W        W12526   0.097   0.891   8.238  0.1349 -0.0921 -0.0544
 2267W        W12527  10.269   9.810   6.802  0.1300  0.1220 -0.3334
 2268W        W12528   9.652   6.547   1.210 -0.1274  0.0596 -0.0946
 2269W        W12529   5.316   7.929   8.114 -0.1845 -0.2597  0.0254
 2270W        W12530  11.097   3.463   1.340 -0.1095 -0.3456  0.1451
 2271W        W12531   1.862   3.553   0.942  0.1877 -0.1298  0.0187
 2272W        W12532  13.725   3.480   1.522  0.2470  0.2339  0.1627
 2273W        W12533   2.217   3.494   0.148 -0.1660 -0.0113 -0.1984
 2274W        W12534   4.993   5.371   1.122 -0.0698 -0.0195 -0.0744
 2275W        W12535   5.250  15.534   0.153  0.1115  0.0597 -0.0644
 2276W        W12536   1.407   0.912   7.992  0.0424  0.0133 -0.1023
 2277W        W12537  15.114   8.042   7.384 -0.0551  0.0891 -0.3423
 2278W        W12538  13.852   3.772   1.918 -0.0682 -0.2075 -0.0121
 2279W        W12539   2.615   7.117   6.849  0.2600 -0.3684  0.1842
 2280W        W12540   2.785   8.857   7.703  0.1260 -0.1760 -0.0489
 2281W        W12541   3.208   2.298   6.847  0.2405 -0.2194 -0.0915
 2282W        W12542   7.046   5.140   1.628 -0.1578 -0.1767 -0.1522
 2283W        W12543   9.986  10.064   7.791  0.0162  0.1192  0.1376
 2284W        W12544   1.087   6.605   0.357  0.0388 -0.0704 -0.1699
 2285W        W12545   4.303  16.071   6.740  0.0923 -0.1059 -0.3145
 2286W        W12546   0.511   6.048   0.835  0.2047 -0.0245 -0.0985
 2287W        W12547   5.612   7.408   0.996 -0.1227 -0.3168  0.0874
 2288W        W12548  12.719   3.429   6.578  0.0295  0.1234 -0.0471
 2289W        W12549   1.067   4.073   8.491 -0.0805  0.1353  0.0469
 2290W        W12550   6.877   5.069   7.929 -0.0152 -0.0422  0.1199
 2291W        W12551   4.921   3.237   0.462 -0.1600  0.3499 -0.0698
 2292W        W12552   6.280  15.774   7.501  0.1290 -0.0157  0.4582
 2293W        W12553   3.021   4.979   6.694  0.0365  0.0789  0.1345
 2294W        W12554  15.281   4.618   1.064  0.2853 -0.0981 -0.0625
 2295W        W12555   4.039   4.319   7.742 -0.0206  0.1940 -0.2023
 2296W        W12556   3.955   9.682   0.573 -0.0954  0.1200  0.0845
 2297W        W12557   4.331   4.569   1.555 -0.1547 -0.2369 -0.0232
 2298W        W12558   9.567   5.212   7.214  0.0991 -0.1910 -0.0708
 2299W        W12559   3.557   7.174   7.198  0.1225  0.1497 -0.3805
 2300W        W12560   1.146  16.409   6.577  0.1925 -0.0548  0.3362
 2301W        W12561   7.375   1.099   6.232  0.0474  0.4880 -0.1787
 2302W        W12562   2.233   6.305   0.108 -0.0767 -0.0423  0.1457
 2303W        W12563   3.688   6.853   8.496 -0.1175 -0.1830  0.2765
 2304W        W12564  13.403  12.834   7.153  0.1915 -0.1717  0.0025
 2305W        W12565   5.943   6.611   7.932  0.0039 -0.1179  0.0368
 2306W        W12566   4.665   1.852   7.956  0.2331  0.1031 -0.1127
 2307W        W12567   2.016   9.659   7.134 -0.3975  0.2082 -0.1215
 2308W        W12568   6.550   9.641   7.109  0.2142  0.1180 -0.0397
 2309W        W12569   7.597  15.300   7.590 -0.1121  0.0679  0.0988
 2310W        W12570   9.196   8.104   8.108 -0.4415 -0.0037  0.1639
 2311W        W12571   4.317   9.127   1.109  0.2449  0.1872 -0.0950
 2312W        W12572   6.416   3.292   0.658  0.3776  0.1286 -0.1568
 2313W        W12573   1.135   2.925   7.148 -0.1535 -0.1858 -0.0111
 2314W        W12574   7.741   1.268   0.131  0.2014 -0.1266 -0.0512
 2315W        W12575   2.903  11.897   8.027  0.2005  0.0844  0.0025
 2316W        W12576  16.485   1.879   6.082 -0.1959  0.0279  0.0826
 2317W        W12577   4.921   6.010   6.382 -0.3719  0.1192  0.2222
 2318W        W12578   5.355   2.279   1.461  0.0216 -0.0411 -0.0502
 2319W        W12579  11.282   4.703   0.117 -0.0552  0.1340  0.0016
 2320W        W12580   5.962   6.965   6.609 -0.2539 -0.1850 -0.0095
 2321W        W12581   7.125   7.236   0.945 -0.1644  0.0655  0.0397
 2322W        W12582   6.130  13.722   8.401 -0.0664  0.1095 -0.1207
 2323W        W12583  10.705   2.143   1.739 -0.0221  0.0228  0.0107
 2324W        W12584   9.564   5.580   8.456  0.1275 -0.1186 -0.2434
 2325W        W12585  10.725   9.043   1.622  0.1495  0.1338  0.1414
 2326W        W12586   2.687   7.945   7.519  0.1540 -0.1532  0.0889
 2327W        W12587   8.712   0.566   7.095 -0.2136 -0.0201 -0.2902
 2328W        W12588   3.280   0.465   8.364 -0.0223 -0.0803 -0.1594
 2329W        W12589   6.117   1.616   6.414 -0.1124 -0.1549  0.1777
 2330W        W12590   9.357   2.730   8.233  0.0451 -0.0958  0.3305
 2331W        W12591   9.646   3.290   7.709 -0.0798  0.0450  0.1041
 2332W        W12592   6.824   1.807   8.468  0.0838 -0.2127  0.0792
 2333W        W12593   4.245  11.623   6.721  0.0523  0.0865  0.3108
 2334W        W12594  15.650   3.110   1.388 -0.2375  0.2073  0.0247
 2335W        W12595   4.263   8.574   8.136 -0.0043 -0.0805 -0.0257
 2336W        W12596   3.560   4.329   7.758 -0.1062  0.2160 -0.1921
 2337W        W12597   5.838   6.025   8.560 -0.3002 -0.0709 -0.0085
 2338W        W12598   6.905   5.598   7.173 -0.1574 -0.3203 -0.2700
 2339W        W12599   6.207   7.942   7.757  0.1355  0.1042  0.2558
 2340W        W12600   5.391   1.897   8.364 -0.1358  0.1746  0.0560
 2341W        W12601  10.491   4.874   5.966 -0.2992 -0.0914 -0.0872
 2342W        W12602   8.019   7.322   6.777  0.3682 -0.1655  0.2928
 2343W        W12603   5.590   4.685   8.419  0.0393  0.1620 -0.2139
 2344W        W12604   3.697   6.695   1.149 -0.1830 -0.0958  0.4192
 2345W        W12605  16.011   5.861   7.561 -0.2679 -0.1508  0.0586
 2346W        W12606   0.915   2.965   0.298  0.1314  0.0468  0.0003
 2347W        W12607  16.429   1.072   2.492  0.3685 -0.1047 -0.0850
 2348W        W12608   4.508   8.675   0.187 -0.0466  0.2241  0.0798
 2349W        W12609   6.775   5.098   0.142  0.1413 -0.1445 -0.0033
 2350W        W12610   4.722   4.860   7.425  0.0462 -0.0336 -0.1282
 2351W        W12611   5.757   1.155   0.176  0.1478  0.0213 -0.1288
 2352W        W12612  13.974   0.158   7.918  0.1899 -0.0483  0.0432
 2353W        W12613   5.522   7.429   7.330  0.1801  0.0542  0.2039
 2354W        W12614   2.755   5.428   6.690  0.2128  0.1699 -0.2965
 2355W        W12615   2.086   2.770   0.696  0.0783 -0.3214 -0.0467
 2356W        W12616   1.669   1.271   1.671 -0.3807 -0.3202 -0.2937
 2357W        W12617   7.970   7.849   8.241 -0.2303  0.1046  0.3732
 2358W        W12618   8.771   5.354   6.888 -0.3864  0.0627 -0.0214
 2359W        W12619   5.055   3.889   6.899  0.0411  0.0655  0.0754
 2360W        W12620   2.262   3.033   6.172 -0.2312 -0.0682  0.1139
 2361W        W12621   6.421   1.991   8.203 -0.1763 -0.0228  0.0262
 2362W        W12622   4.210   4.350   6.769 -0.2962  0.0933  0.1090
 2363W        W12623   9.245   9.498   0.364  0.1243 -0.1003  0.0850
 2364W        W12624   5.918   0.268   6.635  0.2299 -0.1255  0.0905
 2365W        W12625   6.073   0.762   2.155 -0.2646 -0.1372  0.1172
 2366W        W12626   2.410   6.881   7.314 -0.3125 -0.0652 -0.1790
 2367W        W12627  16.209   2.379   6.887 -0.0741  0.0422  0.0799
 2368W        W12628   2.684   9.278   0.766  0.2724  0.1651 -0.1425
 2369W        W12629   6.208   6.938   7.586  0.1660 -0.2401  0.5527
 2370W        W12630  16.403   8.319   1.073  0.2233 -0.2360 -0.1523
 2371W        W12631  15.822   1.608   6.827  0.0127 -0.0672 -0.1720
 2372W        W12632   8.635   2.100   6.525 -0.1758  0.0058 -0.2897
 2373W        W12633   6.891   2.420   7.011 -0.0360 -0.4038  0.1235
 2374W        W12634   1.918   6.481   0.405  0.0660  0.1789 -0.0588
 2375W        W12635   2.682   1.295   2.732 -0.3643  0.0620  0.2056
 2376W        W12636   3.023   1.647   0.181 -0.0287  0.0028 -0.0846
 2377W        W12637   5.460   5.726   8.489 -0.0951  0.0098 -0.3305
 2378W        W12638   7.484   4.717   7.095  0.0911 -0.1898  0.2524
 2379W        W12639   9.711   5.634   1.103  0.0711  0.0438 -0.0183
 2380W        W12640   7.074   3.457   1.212 -0.2245  0.2413 -0.3686
 2381W        W12641   5.739   3.565   0.159  0.0201 -0.0424 -0.2024
 2382W        W12642   4.312   0.519   8.297 -0.0358 -0.1801  0.0211
 2383W        W12643   8.628   5.625   1.474  0.1065  0.5396 -0.0910
 2384W        W12644  14.356   1.407   6.773  0.0828 -0.0080 -0.1962
 2385W        W12645  10.780   5.285   6.526 -0.2929  0.2398  0.0132
 2386W        W12646   5.031   4.186   1.368 -0.1928  0.2357 -0.0048
 2387W        W12647   7.932  10.046   1.172  0.2600  0.0313 -0.2508
 2388W        W12648   0.860   2.611   1.605  0.0467 -0.0322 -0.2369
 2389W        W12649  11.171   8.559   2.318 -0.2546 -0.0381  0.0939
 2390W        W12650  10.810   2.924   6.587 -0.0310 -0.1680 -0.1168
 2391W        W12651   5.607   0.515   7.034 -0.0151  0.3762  0.0971
 2392W        W12652   8.181   1.454   0.627 -0.0605 -0.4512 -0.4757
 2393W        W12653  10.779   4.816   7.440  0.2294 -0.0959  0.0077
 2394W        W12654   9.343   3.019   1.065  0.0166 -0.3609 -0.1912
 2395W        W12655   6.606   8.779   7.276  0.0801 -0.1618 -0.2136
 2396W        W12656  12.668  10.778   2.045  0.2120  0.1094  0.0018
 2397W        W12657   7.450   4.526   0.331 -0.0794  0.2414  0.1321
 2398W        W12658  12.580   5.246   0.507  0.0333 -0.0976  0.0881
 2399W        W12659   9.600   2.383   0.013 -0.2992 -0.2070 -0.0210
 2400W        W12660  10.194   1.282   6.905  0.0290  0.0498 -0.0498
 2401W        W12661   3.572   2.519   8.040 -0.0687  0.2243  0.1493
 2402W        W12662  12.438   2.642   7.705 -0.0097  0.0498  0.2766
 2403W        W12663   7.492   7.705   6.170  0.3028 -0.0904  0.0308
 2404W        W12664   5.075   6.962   6.806  0.0597 -0.4534  0.0205
 2405W        W12665  11.767   4.637   2.507 -0.0410 -0.1314  0.2047
 2406W        W12666  11.608   7.573   7.757  0.0302  0.1275 -0.0439
 2407W        W12667   6.036   4.666   1.558  0.0508  0.0337 -0.0146
 2408W        W12668   9.457   4.704   0.994  0.1201  0.1943  0.2986
 2409W        W12669   7.069   5.543   0.042 -0.3064 -0.2705 -0.0966
 2410W        W12670   8.485   0.891   7.408  0.0155  0.0489  0.1963
 2411W        W12671   8.660   1.739   0.641  0.1672  0.0249 -0.3653
 2412W        W12672  16.076   4.197   7.949  0.0524 -0.1524 -0.1277
 2413W        W12673  13.531   9.190   6.988  0.1917 -0.0764  0.1314
 2414W        W12674  11.320   5.312   6.504 -0.0049  0.2334 -0.1526
 2415W        W12675  11.387   5.974   1.122 -0.0123  0.1009  0.2378
 2416W        W12676   8.818   4.747   7.189 -0.2421 -0.3271 -0.1945
 2417W        W12677   6.673   2.613   1.586  0.1039  0.1931  0.4338
 2418W        W12678   6.756   7.126   8.139 -0.3057  0.3052  0.1238
 2419W        W12679  12.428   5.733   7.214  0.1587 -0.0728  0.0642
 2420W        W12680   0.530   1.829   0.301  0.0200 -0.3221  0.0266
 2421W        W12681   5.765   3.682   7.580  0.1726 -0.3048 -0.0906
 2422W        W12682   6.517   6.740   2.368 -0.0403  0.0950 -0.1263
 2423W        W12683   9.448   7.268   0.465  0.1062 -0.4223  0.0258
 2424W        W12684  11.451   2.925   7.031  0.1865 -0.0237 -0.2811
 2425W        W12685   9.005   4.463   8.163  0.0116  0.1761  0.0947
 2426W        W12686   7.018   1.362   7.070  0.2907  0.1254  0.1051
 2427W        W12687   4.736  10.805   7.665 -0.2290  0.0494 -0.1367
 2428W        W12688  12.296   4.303   1.786 -0.0077 -0.3275  0.2863
 2429W        W12689   9.913  12.978   1.663  0.2717 -0.1932  0.0843
 2430W        W12690   6.099  10.571   7.976 -0.1165 -0.0482 -0.1055
 2431W        W12691   9.084   6.916   6.761 -0.0413  0.1675 -0.2247
 2432W        W12692   8.819   0.190   1.977  0.1233 -0.0450  0.0186
 2433W        W12693  15.469   5.972   7.224  0.1848 -0.0667  0.0127
 2434W        W12694   8.124   1.967   6.750 -0.0244 -0.0046 -0.0613
 2435W        W12695  11.231   0.096   1.445  0.0810  0.3694 -0.2645
 2436W        W12696  10.977   5.612   7.358 -0.3542 -0.3239 -0.0694
 2437W        W12697   3.790   3.439   8.495  0.0831  0.1556  0.1351
 2438W        W12698  11.884   7.560   6.081  0.4198  0.0174  0.2225
 2439W        W12699  16.114   2.862   0.000  0.2102  0.1260 -0.1191
 2440W        W12700  15.677   5.614   7.814  0.3699 -0.1714 -0.0093
 2441W        W12701  15.231   4.803   2.736 -0.1851 -0.2832  0.1133
 2442W        W12702   6.622   5.477   0.480 -0.2328 -0.1648 -0.2329
 2443W        W12703  10.160   4.774   2.438 -0.0842 -0.0864 -0.2655
 2444W        W12704  13.067   2.672   7.951  0.1286  0.2264  0.2053
 2445W        W12705   7.844   3.764   1.750  0.2153  0.0333  0.2597
 2446W        W12706   9.347   7.617   8.325 -0.4413 -0.1450  0.0301
 2447W        W12707   0.914   0.924   1.021 -0.2154  0.4157 -0.2418
 2448W        W12708  10.384   2.926   2.391  0.2424  0.1306 -0.0237
 2449W        W12709   6.189   3.209   0.220 -0.0708 -0.3504 -0.1298
 2450W        W12710   8.485   0.413   7.516  0.1037  0.0380 -0.2187
 2451W        W12711   5.954   0.332   7.658  0.1600 -0.3002 -0.2320
 2452W        W12712  15.144  15.677   7.857 -0.1418 -0.1412  0.1231
 2453W        W12713  11.620   6.130   8.343 -0.2774 -0.0100 -0.4899
 2454W        W12714   9.098  10.044   7.886  0.1379  0.2089 -0.0194
 2455W        W12715   6.229  10.369   1.639 -0.1486 -0.1971  0.2471
 2456W        W12716  10.945   5.058   2.684  0.0821  0.3980  0.0555
 2457W        W12717   7.904  15.858   6.830 -0.1723  0.2213  0.0243
 2458W        W12718   9.139   8.107   6.868  0.3118 -0.2651 -0.2066
 2459W        W12719   3.828   4.698   1.913 -0.2088 -0.0642 -0.1210
 2460W        W12720   8.495   7.020   7.570 -0.1422  0.0158  0.1994
 2461W        W12721   4.160   4.119   7.280  0.0203 -0.4887 -0.0950
 2462W        W12722  10.640  16.530   0.606 -0.2758  0.3248 -0.0013
 2463W        W12723   7.552  11.828   1.653 -0.3829  0.1510  0.3388
 2464W        W12724   4.347   7.075   6.799  0.2314  0.1181 -0.0555
 2465W        W12725  11.017   6.361   7.480  0.0979 -0.0102 -0.0409
 2466W        W12726   7.894   4.054   8.287 -0.1435 -0.2653  0.1019
 2467W        W12727   3.910   5.483   1.482 -0.2057 -0.2896  0.2502
 2468W        W12728   9.551   8.179   1.506  0.2291 -0.1626 -0.0862
 2469W        W12729   7.855   4.232   0.471 -0.3607  0.1513 -0.0064
 2470W        W12730   3.737   8.822   1.689  0.2055  0.0813  0.0748
 2471W        W12731   8.265   2.600   8.112  0.0814 -0.1165  0.1038
 2472W        W12732   3.865   4.239   8.278 -0.3322  0.1085  0.2252
 2473W        W12733   9.286   3.282   7.395  0.0571  0.1274  0.0007
 2474W        W12734   5.430   9.390   7.034 -0.1521  0.2374  0.1307
 2475W        W12735  11.331   2.756   6.616  0.0390 -0.0681  0.1440
 2476W        W12736   8.755   4.664   0.345  0.1210 -0.0726  0.2353
 2477W        W12737   8.478   0.479   0.511  0.2183 -0.0571 -0.2419
 2478W        W12738   7.250   1.530   8.424 -0.1102  0.1822 -0.2832
 2479W        W12739   8.001   2.132   8.218  0.1919  0.2214 -0.0792
 2480W        W12740   7.087   0.523   6.076  0.2646  0.2445  0.0311
 2481W        W12741   9.379   6.807   8.478  0.2560 -0.1148  0.3217
 2482W        W12742   1.992   3.864   0.552  0.1688 -0.0274  0.4329
 2483W        W12743   5.103   2.771   1.367  0.0414  0.0798  0.2282
 2484W        W12744  11.029   1.239   1.855  0.2812 -0.5871  0.1449
 2485W        W12745  15.484   3.335   8.211  0.1568  0.1272  0.0133
 2486W        W12746   9.782   2.981   7.324  0.2577  0.1551  0.2789
 2487W        W12747  12.507  11.412   8.469  0.0304 -0.1823  0.1697
 2488W        W12748   9.392  10.516   8.320  0.4336 -0.1947  0.3059
 2489W        W12749  10.411   4.627   0.511 -0.0812  0.1078 -0.2343
 2490W        W12750   6.884   3.102   0.337 -0.0272 -0.0697 -0.0164
 2491W        W12751  13.478   2.971   7.716  0.2310  0.1458 -0.0211
 2492W        W12752   7.614   4.242   6.770 -0.2257  0.1057 -0.0210
 2493W        W12753   8.083  10.410   0.414  0.1893 -0.1667 -0.0871
 2494W        W12754  12.722   4.733   2.159 -0.0359  0.0250  0.1507
 2495W        W12755  12.539   8.314   8.096  0.3471 -0.0771  0.1878
 2496W        W12756   0.175   4.471   8.505  0.0081 -0.4904 -0.0237
 2497W        W12757  15.194   5.480   7.126  0.0556 -0.0170  0.0998
 2498W        W12758   9.018   7.137   8.586 -0.0063  0.1716  0.0164
 2499W        W12759   5.944   5.539   7.234 -0.2931  0.2317  0.1532
 2500W        W12760  11.487  12.152   6.565  0.1702  0.0817  0.1585
 2501W        W12761  15.868   5.093   7.111  0.2716  0.0416 -0.1769
 2502W        W12762  13.109  12.010   8.018 -0.0903  0.0476 -0.1372
 2503W        W12763   7.437   8.192   2.315  0.1118 -0.2346 -0.0206
 2504W        W12764   3.056  14.733   0.224  0.1910 -0.4412  0.1642
 2505W        W12765   6.260   9.652   8.607  0.0501  0.0195  0.1427
 2506W        W12766  11.970   2.836   0.895 -0.1025 -0.0195 -0.2757
 2507W        W12767   8.692   3.717   7.264 -0.0959  0.0861  0.2766
 2508W        W12768   8.378   0.092   1.519  0.2321  0.2950 -0.0554
 2509W        W12769   3.865   1.446   8.280  0.1370 -0.0204  0.1892
 2510W        W12770   9.509  16.343   0.027 -0.0040 -0.1035  0.2258
 2511W        W12771  12.838   2.144   8.583  0.0141  0.3230 -0.1550
 2512W        W12772  10.853   4.185   5.671 -0.2675  0.1352  0.3238
 2513W        W12773  12.030   6.542   1.403  0.0200  0.0419  0.1107
 2514W        W12774  14.622   1.749   7.711 -0.0214  0.1171  0.1731
 2515W        W12775   9.022   6.775   8.153 -0.1491  0.3626 -0.1839
 2516W        W12776   5.043   4.713   7.753 -0.1163  0.0651  0.3101
 2517W        W12777  15.014   1.479   7.602  0.0485 -0.0098 -0.0930
 2518W        W12778   1.944   1.692   2.412  0.0300 -0.0465 -0.1280
 2519W        W12779   6.530   5.922   8.470 -0.0858  0.0881  0.0920
 2520W        W12780  10.474   1.164   8.367 -0.2356  0.2017  0.1451
 2521W        W12781   9.594  10.009   7.204 -0.3649 -0.3594 -0.1836
 2522W        W12782  10.029   6.090   2.045  0.0746  0.2732 -0.0670
 2523W        W12783   5.067   4.141   6.148  0.0752 -0.1758 -0.0810
 2524W        W12784   6.426   1.740   6.815  0.2501  0.0378  0.0820
 2525W        W12785   9.895   5.247   7.602 -0.2744 -0.2008  0.0184
 2526W        W12786  11.303   8.245   7.098  0.3259 -0.3976 -0.3114
 2527W        W12787  10.545   7.483   7.117  0.0806  0.0467 -0.0007
 2528W        W12788  11.937  14.152   1.319 -0.0162  0.1772  0.1227
 2529W        W12789   7.019   0.493   7.395 -0.1567 -0.1396 -0.0339
 2530W        W12790   8.066   6.657   1.129  0.1525  0.2600  0.3840
 2531W        W12791   4.118   6.265   1.483 -0.0194 -0.0605  0.0474
 2532W        W12792  11.023   5.596   0.960 -0.6216 -0.1480 -0.0568
 2533W        W12793   7.471   0.843   7.418 -0.2173  0.1632 -0.2851
 2534W        W12794   8.090   8.240   0.799 -0.0279  0.3959  0.0378
 2535W        W12795   9.475   0.111   6.533 -0.2380 -0.3130  0.0543
 2536W        W12796   7.447   1.071   8.354  0.0447 -0.1704  0.2014
 2537W        W12797   9.960   7.591   7.097  0.2534 -0.2022 -0.1766
 2538W        W12798   6.206   2.937   0.973  0.0666 -0.2439  0.0355
 2539W        W12799  10.558  12.397   6.867 -0.0052 -0.2542 -0.2094
 2540W        W12800   8.458   4.142   1.193  0.1321  0.0002 -0.2611
 2541W        W12801   9.488   2.189   2.072 -0.2393 -0.0804  0.2890
 2542W        W12802   4.795   4.891   0.929 -0.1500 -0.3547 -0.0050
 2543W        W12803  14.400   0.140   8.661  0.0651  0.2079  0.0374
 2544W        W12804   6.761   0.463   8.162  0.1688 -0.1854 -0.1113
 2545W        W12805   4.177   2.734   8.142  0.2713 -0.1920  0.0159
 2546W        W12806   9.028  15.482   0.669 -0.1018 -0.0194  0.0334
 2547W        W12807   6.497   9.462   1.483 -0.3691  0.0006 -0.2371
 2548W        W12808   8.008   1.206   8.125 -0.0117  0.1125 -0.1280
 2549W        W12809   9.735   4.755   7.379  0.1668  0.1012 -0.2543
 2550W        W12810  11.832  11.851   0.097  0.2561 -0.2235  0.2669
 2551W        W12811   4.825   7.629   7.478 -0.1283 -0.1259  0.0977
 2552W        W12812  10.827  12.544   2.059  0.2526 -0.2635  0.1291
 2553W        W12813   8.271   4.611   0.517 -0.3291 -0.0580  0.3440
 2554W        W12814   6.389   5.062   1.643 -0.2712  0.1048  0.0036
 2555W        W12815   8.614   4.370   8.491 -0.1974 -0.3172 -0.0042
 2556W        W12816   5.384   7.014   2.463 -0.1716  0.5579 -0.0231
 2557W        W12817   6.010   9.863   0.881 -0.0846 -0.1003  0.0218
 2558W        W12818  13.896   5.451   7.072  0.2111  0.0567  0.1671
 2559W        W12819  10.715   8.294   2.418 -0.2900  0.1916 -0.1165
 2560W        W12820   6.146   9.727   0.416 -0.1787  0.0831 -0.0646
 2561W        W12821  15.579   4.092   7.559  0.1690 -0.0098 -0.2085
 2562W        W12822   6.462   4.893   5.992 -0.4921 -0.0387 -0.0343
 2563W        W12823   4.067   7.836   7.262  0.0622  0.1574  0.1868
 2564W        W12824  13.864  12.026   7.321 -0.0964  0.1118  0.0335
 2565W        W12825  11.521   7.803   1.442  0.3143  0.1578 -0.1894
 2566W        W12826   8.629   1.917   7.060 -0.2142 -0.1780 -0.0252
 2567W        W12827  11.723   2.307   1.937 -0.2595 -0.1532  0.0829
 2568W        W12828   6.604   4.517   8.676  0.0677 -0.0865  0.0882
 2569W        W12829   7.833  10.179   8.412 -0.0770  0.0052 -0.2358
 2570W        W12830   3.390   5.778   1.233 -0.1152  0.1592 -0.1764
 2571W        W12831  12.343   3.738   0.784  0.0939 -0.0183 -0.1284
 2572W        W12832  11.013   8.769   0.830  0.0618  0.2150 -0.0091
 2573W        W12833  13.915   6.165   1.116 -0.2604 -0.0671  0.2557
 2574W        W12834   7.081   7.608   8.285  0.2022 -0.1897 -0.0924
 2575W        W12835  14.922  10.465   6.966 -0.1256 -0.1964 -0.0575
 2576W        W12836  14.193   6.805   7.847  0.0467  0.1249 -0.0347
 2577W        W12837   7.202  16.335   0.275 -0.3118 -0.2890  0.3564
 2578W        W12838  12.826   4.524   1.730  0.2064 -0.2295  0.1119
 2579W        W12839  14.293   8.402   7.228 -0.1259  0.1618  0.1661
 2580W        W12840   6.067   3.327   1.288 -0.1898  0.2378  0.3765
 2581W        W12841  15.045   8.028   1.775 -0.0316  0.1989  0.1150
 2582W        W12842  15.928  14.157   0.469  0.2804 -0.1340  0.1148
 2583W        W12843   8.873   2.360   7.273  0.1283 -0.0432  0.0392
 2584W        W12844  11.824   9.480   6.941 -0.1773  0.0463 -0.1015
 2585W        W12845   3.366  10.759   0.840  0.1928  0.3605 -0.2076
 2586W        W12846   7.293   2.860   1.076 -0.4498 -0.0859 -0.0497
 2587W        W12847   0.016   9.412   7.939 -0.2948  0.1467 -0.1515
 2588W        W12848  15.313  12.624   2.642  0.0558  0.2047  0.2806
 2589W        W12849   1.167   7.572   2.051  0.2253  0.0269 -0.1624
 2590W        W12850   9.732   7.341   0.989  0.3803  0.0658 -0.0212
 2591W        W12851  15.467  10.391   5.928  0.3033 -0.0914 -0.1271
 2592W        W12852  11.244   8.460   8.141 -0.1241  0.4208 -0.1052
 2593W        W12853   3.259   2.163   0.550  0.0622 -0.0412 -0.3304
 2594W        W12854  14.053  13.048   1.556 -0.2719 -0.1983 -0.0683
 2595W        W12855   5.658   5.936   8.047 -0.3299 -0.0412  0.0624
 2596W        W12856  14.810   0.395   8.406 -0.0442 -0.0388 -0.1243
 2597W        W12857  14.364   0.951   6.555  0.1509 -0.2210  0.3287
 2598W        W12858  10.546   3.409   7.699 -0.0300 -0.1604  0.1505
 2599W        W12859  13.021   6.346   5.880 -0.0229 -0.1319  0.0006
 2600W        W12860   7.220  11.003   2.169  0.0645 -0.0508 -0.0636
 2601W        W12861   5.690  16.496   8.486 -0.1865 -0.0606 -0.1624
 2602W        W12862  14.026   3.484   0.982  0.1981 -0.0925  0.0503
 2603W        W12863   2.904   4.345   2.424  0.1082 -0.1795  0.0414
 2604W        W12864  11.637  11.478   2.148 -0.4150 -0.1716  0.0208
 2605W        W12865   1.173  12.296   0.239 -0.1430 -0.1196  0.1669
 2606W        W12866  11.104   3.619   0.477  0.2038 -0.1031  0.2001
 2607W        W12867  12.397   5.132   8.115  0.2263 -0.2072  0.2177
 2608W        W12868   4.102   4.912   1.215  0.0928 -0.0864 -0.0776
 2609W        W12869  11.280   2.753   0.836 -0.0564 -0.1079 -0.1126
 2610W        W12870  14.913   5.742   0.361  0.3080  0.0442 -0.1689
 2611W        W12871  12.114  10.307   1.695 -0.0980  0.3636  0.3061
 2612W        W12872  11.828  16.175   7.351  0.2002 -0.0728 -0.0464
 2613W        W12873  14.202   3.389   1.734  0.0836  0.0190 -0.1481
 2614W        W12874  14.443   8.240   8.096 -0.0716 -0.0538 -0.0876
 2615W        W12875  10.605   7.937   0.933 -0.1269 -0.0892 -0.0462
 2616W        W12876  15.832   8.932   1.095 -0.0256  0.0271  0.1352
 2617W        W12877   0.416   6.053   7.832  0.0250  0.1504  0.3514
 2618W        W12878   9.067   4.543   7.640 -0.1207  0.2175  0.0591
 2619W        W12879  15.553   3.577   0.338 -0.0379  0.1305 -0.1144
 2620W        W12880  12.289   3.861   2.182 -0.1399 -0.2257 -0.0338
 2621W        W12881  16.007   5.681   0.110 -0.1052 -0.1243  0.0629
 2622W        W12882  14.374   4.731   1.236 -0.0551 -0.2059 -0.1258
 2623W        W12883  14.061   7.392   1.640  0.1636  0.0821  0.1619
 2624W        W12884   5.546   5.985   1.206 -0.2267  0.0802  0.1905
 2625W        W12885  15.476   5.252   6.767 -0.2263 -0.1893  0.3824
 2626W        W12886  12.041   7.059   1.617  0.0434 -0.0884 -0.2783
 2627W        W12887  14.839   2.224   8.215  0.1012  0.1781  0.1528
 2628W        W12888   5.154   4.441   0.966 -0.2183  0.2325  0.0437
 2629W        W12889  12.993   6.194   6.446 -0.0179  0.4602  0.0150
 2630W        W12890  10.780   4.289   7.496  0.0528 -0.0441 -0.0055
 2631W        W12891   8.886   9.042   8.256  0.0919 -0.1941  0.2013
 2632W        W12892  15.162   4.986   2.256  0.1916  0.0783  0.3085
 2633W        W12893  11.781   3.208   1.613 -0.1261 -0.2685  0.1780
 2634W        W12894   1.684   4.145   0.796 -0.0395  0.0021 -0.0192
 2635W        W12895   8.981  11.638   7.708  0.0648 -0.2481 -0.0638
 2636W        W12896  12.181   0.952   1.115 -0.0948 -0.0070 -0.0406
 2637W        W12897   6.319   3.120   8.392 -0.0937 -0.1447  0.0632
 2638W        W12898   5.822  15.657   7.282  0.2427 -0.0954  0.2145
 2639W        W12899  12.559   9.382   0.536 -0.0709 -0.1446  0.0182
 2640W        W12900  10.120  11.103   0.087 -0.1570  0.0797 -0.0753
 2641W        W12901  11.674  10.060   2.390 -0.3568 -0.2684 -0.2118
 2642W        W12902  11.178   1.596   1.452  0.0095 -0.2091  0.0642
 2643W        W12903   9.360  10.445   1.876  0.0818  0.0102  0.0232
 2644W        W12904  14.214   6.297   6.944 -0.0164 -0.0210 -0.1148
 2645W        W12905   9.049   2.242   1.198 -0.0697 -0.1207  0.0773
 2646W        W12906  13.588  15.649   8.348 -0.0791 -0.0594 -0.1506
 2647W        W12907  14.599   3.599   8.082  0.0130 -0.2336  0.0501
 2648W        W12908   0.506   5.354   1.768  0.0082 -0.0707 -0.3996
 2649W        W12909   7.826   7.423   0.478 -0.2141  0.1442  0.0078
 2650W        W12910  11.564   8.696   1.054  0.0989 -0.1746  0.0314
 2651W        W12911  10.825   9.258   0.599  0.1026  0.0325 -0.1715
 2652W        W12912   7.440   3.429   1.637 -0.1313 -0.1570  0.1760
 2653W        W12913  14.830   8.547   8.139 -0.1823  0.0970 -0.0120
 2654W        W12914  11.706   5.641   6.424 -0.2302 -0.1789  0.2462
 2655W        W12915   1.772   2.360   2.611  0.0653  0.1123  0.0745
 2656W        W12916   2.339   0.063   8.548  0.1080 -0.1121  0.0436
 2657W        W12917  12.411   2.212   6.495  0.0410 -0.1319 -0.0690
 2658W        W12918  15.500   2.840   0.955 -0.1405  0.0871 -0.1305
 2659W        W12919  16.304   2.082   2.164  0.0189  0.1816  0.0127
 2660W        W12920  14.206   8.440   8.579 -0.0077 -0.1413  0.2519
 2661W        W12921   4.780   6.876   8.665 -0.0358  0.2702  0.1841
 2662W        W12922  14.049   3.469   0.288 -0.1850  0.1276  0.1201
 2663W        W12923  12.240   4.728   8.449  0.0659  0.1163  0.0071
 2664W        W12924  11.385   7.091   2.685 -0.0987 -0.2299  0.2434
 2665W        W12925  11.638   5.389   1.664  0.0521  0.1790  0.3001
 2666W        W12926  13.418  15.448   0.114 -0.0382  0.3307  0.1400
 2667W        W12927  12.505   4.237   7.529  0.0066 -0.1326  0.0583
 2668W        W12928   8.538   4.989   0.670 -0.4663  0.0793  0.1834
 2669W        W12929  10.444  10.734   0.404  0.1395  0.2729  0.3031
 2670W        W12930   8.744  15.975   6.645  0.0411 -0.0099 -0.2100
 2671W        W12931   1.586   4.173   7.273  0.0145  0.4597 -0.0675
 2672W        W12932  13.164   2.559   1.413 -0.1790  0.2637 -0.1674
 2673W        W12933   9.673   6.828   0.678  0.1754 -0.2472  0.2475
 2674W        W12934  14.443   2.795   6.074 -0.1161 -0.1989  0.0005
 2675W        W12935  10.756   4.473   1.515  0.0468  0.1249 -0.0106
 2676W        W12936   6.646   9.935   8.446  0.2509  0.1137  0.1423
 2677W        W12937   8.933  10.160   1.971 -0.2243 -0.1641 -0.0555
 2678W        W12938   6.935   4.670   1.185 -0.1751  0.0018 -0.3468
 2679W        W12939  13.385   6.691   7.283  0.2244 -0.2899 -0.0351
 2680W        W12940   3.002   9.890   0.705  0.1995 -0.1572 -0.1825
 2681W        W12941  15.025   6.436   8.142 -0.0200 -0.4152  0.0249
 2682W        W12942  10.901   7.086   1.965  0.2730 -0.0561  0.0556
 2683W        W12943  11.454   4.518   8.142  0.3858  0.3410  0.2703
 2684W        W12944   6.721   9.683   7.655  0.1235  0.1342 -0.3980
 2685W        W12945   2.633   0.659   0.177  0.0423 -0.1599 -0.0268
 2686W        W12946  13.876   4.848   7.733 -0.2078 -0.1329 -0.1445
 2687W        W12947  15.666   7.789   6.251  0.5052  0.0275 -0.2916
 2688W        W12948  11.562   7.178   1.306  0.1727 -0.0828 -0.0913
 2689W        W12949   2.822  11.237   1.639 -0.0334 -0.3869  0.0252
 2690W        W12950  11.295   7.783   7.401  0.0587  0.1106  0.1226
 2691W        W12951   7.989   9.796   0.346 -0.2125 -0.0819  0.0547
 2692W        W12952  15.391   2.501   1.929 -0.0611  0.0904  0.1819
 2693W        W12953  10.990   6.217   1.835  0.0157  0.1898 -0.4056
 2694W        W12954  13.337   6.875   0.072  0.1448 -0.1259 -0.1417
 2695W        W12955  15.436  10.227   2.600  0.1898  0.1357 -0.4736
 2696W        W12956   9.046   6.393   7.784  0.2900  0.0822 -0.2072
 2697W        W12957   7.062   5.621   6.272 -0.3536 -0.2523 -0.0161
 2698W        W12958   0.014   4.717   0.225 -0.2685  0.1905  0.1549
 2699W        W12959  16.500   5.971   1.427 -0.1144  0.0982 -0.1137
 2700W        W12960  13.183   4.434   8.005  0.0542  0.3292 -0.1281
 2701W        W12961   2.053   2.843   7.734  0.2107 -0.5106  0.1455
 2702W        W12962  15.133   8.177   1.313  0.1695 -0.1058  0.1033
 2703W        W12963  10.028  12.673   0.090  0.0536 -0.0778 -0.0623
 2704W        W12964  15.774   7.829   6.805  0.0817 -0.0321  0.0907
 2705W        W12965  13.890   5.777   1.446  0.1320 -0.0946  0.2659
 2706W        W12966   2.161  15.000   7.852 -0.2444 -0.1041 -0.1240
 2707W        W12967  14.669   5.202   1.704 -0.1454  0.3634 -0.0164
 2708W        W12968   7.900   8.756   7.307  0.2402 -0.0095 -0.1984
 2709W        W12969   1.467   6.628   8.650 -0.1432  0.1388  0.1658
 2710W        W12970  13.054   8.082   7.984  0.0429  0.1364 -0.0651
 2711W        W12971  11.536   0.895   7.312 -0.0656 -0.0233 -0.1577
 2712W        W12972  12.964   1.681   1.217  0.0483 -0.0985  0.2498
 2713W        W12973  12.284   4.838   0.362  0.1591 -0.2707 -0.3027
 2714W        W12974   9.065   4.946   1.205 -0.1045  0.0746 -0.1486
 2715W        W12975   0.911   5.338   0.706 -0.1007 -0.0464  0.2308
 2716W        W12976   2.562   2.006   7.288  0.0652  0.1319 -0.0668
 2717W        W12977  13.986   9.000   6.948 -0.0258  0.1038 -0.4120
 2718W        W12978  13.450   5.382   1.527  0.0829  0.0267  0.1137
 2719W        W12979  12.538   3.982   2.646 -0.1083 -0.0539  0.3212
 2720W        W12980  14.039   4.643   2.146 -0.0952 -0.2797 -0.2231
 2721W        W12981  12.095  15.369   0.706 -0.0267 -0.0713  0.1315
 2722W        W12982  15.290  13.681   8.126 -0.1256 -0.0284 -0.4292
 2723W        W12983  12.552   3.033   1.990  0.0171 -0.3184 -0.4768
 2724W        W12984   3.860   1.462   1.903  0.1594  0.1620 -0.0053
 2725W        W12985  12.378   6.006   8.309  0.0434 -0.3126 -0.2320
 2726W        W12986   8.253   0.140   2.019 -0.0326 -0.4520  0.0178
 2727W        W12987  15.458   2.192   7.457 -0.1283  0.2012  0.0533
 2728W        W12988  13.841   8.057   7.334  0.3613 -0.2617  0.3177
 2729W        W12989  10.651   5.789   8.271  0.1099 -0.0915 -0.0620
 2730W        W12990   6.692   1.737   1.801 -0.0842  0.0707 -0.0540
 2731W        W12991   9.929   0.966   7.202 -0.4015 -0.1371  0.1269
 2732W        W12992   7.608  16.384   8.511 -0.1299 -0.1682 -0.0501
 2733W        W12993   1.247   5.039   0.990 -0.0042 -0.1511 -0.3337
 2734W        W12994  14.907   4.613   2.064  0.1648 -0.1758  0.0869
 2735W        W12995   9.769   9.672   7.554  0.0751 -0.0554 -0.3452
 2736W        W12996  13.495   6.027   0.275 -0.0076  0.0638 -0.0227
 2737W        W12997  13.413   2.480   0.811  0.0793  0.1996 -0.3233
 2738W        W12998   9.834   7.728   0.703  0.1733  0.1816 -0.1077
 2739W        W12999  13.784   6.642   0.204 -0.0820 -0.0049  0.2644
 2740W        W13000  11.050   3.091   1.910  0.0498  0.1442 -0.3056
 2741W        W13001   0.408   9.173   0.299  0.0758  0.1785  0.0363
 2742W        W13002  11.347   2.401   0.296 -0.1143  0.1486 -0.0406
 2743W        W13003  12.063  10.194   6.377  0.1725 -0.0699 -0.2103
 2744W        W13004   8.221   6.093   0.868  0.2864 -0.1315 -0.1847
 2745W        W13005  15.827   6.512   1.316 -0.2256 -0.0212  0.4689
 2746W        W13006   9.305  11.616   6.926 -0.0013  0.1474 -0.0317
 2747W        W13007   7.147   6.561   1.728  0.0668  0.0979  0.0715
 2748W        W13008  10.354   8.440   0.188 -0.1053 -0.1869  0.0671
 2749W        W13009  12.215   4.438   6.182  0.2402  0.1894  0.0318
 2750W        W13010   9.954   4.772   8.414  0.0504  0.4091 -0.2054
 2751W        W13011  12.646   4.685   7.236 -0.1151  0.0260 -0.0956
 2752W        W13012  14.654   7.193   0.799  0.0818  0.2685 -0.0471
 2753W        W13013  13.027   7.594   7.712 -0.3111  0.0939 -0.0932
 2754W        W13014  13.363   4.524   1.756  0.4030  0.3131  0.3269
 2755W        W13015  16.440  11.278   0.065  0.1095 -0.0032 -0.0087
 2756W        W13016  14.818   4.282   8.240 -0.2283  0.3893 -0.0933
 2757W        W13017  14.833   9.451   8.454  0.2983 -0.2339 -0.3783
 2758W        W13018  10.224   8.468   2.136  0.1002  0.3104 -0.1076
 2759W        W13019  13.831   0.630   7.918 -0.0396  0.3702  0.1159
 2760W        W13020  10.236   3.793   6.414  0.0220  0.0529  0.3612
 2761W        W13021  10.110   8.792   7.317 -0.2061 -0.4977  0.2766
 2762W        W13022  13.884   5.775   8.250  0.1296  0.0659 -0.1421
 2763W        W13023   1.060   6.924   8.613 -0.2895 -0.1322 -0.1492
 2764W        W13024   1.087   8.971   1.058  0.0939  0.0582 -0.0757
 2765W        W13025  10.040   4.957   0.311  0.1171 -0.0387  0.0802
 2766W        W13026  11.781   4.206   2.316 -0.2054  0.2909 -0.1299
 2767W        W13027   5.776  10.061   0.415  0.2544 -0.2041  0.2134
 2768W        W13028   9.176   5.691   7.442 -0.0714  0.2386  0.0757
 2769W        W13029  12.243   6.945   0.541  0.2960 -0.2656  0.1638
 2770W        W13030  11.227   1.563   8.158 -0.2231  0.0637 -0.0476
 2771W        W13031   3.706   6.016   0.447  0.1648  0.1557  0.1108
 2772W        W13032   1.483  16.371   0.588 -0.2776 -0.0114  0.0512
 2773W        W13033  16.582   5.878   7.673 -0.0840  0.2104 -0.0193
 2774W        W13034  11.434   3.784   0.105 -0.0842 -0.4088 -0.1246
 2775W        W13035  11.892   6.149   6.430 -0.3698 -0.0060 -0.1246
 2776W        W13036  14.466   9.134   6.900 -0.3112  0.3480 -0.0277
 2777W        W13037  15.852   0.576   8.384  0.2312  0.0289 -0.0225
 2778W        W13038   2.255   8.781   7.700  0.0602 -0.0390 -0.2692
 2779W        W13039   0.026   4.769   7.656  0.1685  0.0013  0.1053
 2780W        W13040  16.249   5.896   1.889  0.2475  0.1408 -0.2740
 2781W        W13041   1.054   4.439   1.785  0.1842 -0.1521  0.3664
 2782W        W13042  13.304   6.140   7.735 -0.0197 -0.0377  0.2215
 2783W        W13043  15.811   7.502   1.715 -0.0962 -0.3356  0.1163
 2784W        W13044  15.633   6.288   6.741 -0.2839 -0.1460  0.2712
 2785W        W13045   0.867   7.023   2.081 -0.1543  0.1085  0.2217
 2786W        W13046   1.584   6.896   0.354 -0.0895  0.0399 -0.1322
 2787W        W13047  16.461   3.994   6.049  0.0782  0.0027  0.0224
 2788W        W13048  15.997   7.182   7.898  0.0744 -0.1025 -0.1271
 2789W        W13049  13.847   5.384   6.511 -0.2265  0.1737 -0.0118
 2790W        W13050   0.927  12.147   1.434  0.1064  0.2556 -0.0780
 2791W        W13051  12.563  10.119   6.953 -0.3168 -0.4202  0.0613
 2792W        W13052   0.923   6.108   1.515  0.0025 -0.1241 -0.0386
 2793W        W13053   1.791   5.708   7.839  0.0219 -0.0528  0.1549
 2794W        W13054  13.550   6.603   7.753 -0.1028 -0.1728 -0.1159
 2795W        W13055   2.596   8.777   7.241 -0.2253  0.0255 -0.1015
 2796W        W13056  16.273   9.288   0.228 -0.1796 -0.0007 -0.0557
 2797W        W13057  14.509   2.262   1.687 -0.0726  0.2502  0.1553
 2798W        W13058  14.993   8.221   7.819 -0.1935  0.1473 -0.1865
 2799W        W13059  16.242  10.347   6.424 -0.1338 -0.1070 -0.0531
 2800W        W13060  13.196   1.229   6.614 -0.2611 -0.3437 -0.2797
 2801W        W13061  13.201   3.621   0.855  0.2388  0.0438  0.1225
 2802W        W13062  14.133   0.272   6.097 -0.2608  0.0996  0.1918
 2803W        W13063   0.987  11.126   2.085  0.1472  0.1164  0.1131
 2804W        W13064   3.718   2.980   8.296  0.1416 -0.0408  0.2782
 2805W        W13065  14.552   1.913   0.845 -0.2708  0.2958  0.0382
 2806W        W13066   2.375   0.389   2.206 -0.3829 -0.0620  0.1213
 2807W        W13067   9.181   4.965   6.835  0.0284 -0.1566  0.3625
 2808W        W13068   0.591   0.498   1.990 -0.0685  0.2337  0.0029
 2809W        W13069   9.055   7.373   7.545 -0.0455  0.0338 -0.2142
 2810W        W13070  15.539   8.050   1.014 -0.0489  0.1270 -0.0087
 2811W        W13071   2.159   7.238   7.077 -0.1003  0.1840 -0.0089
 2812W        W13072  12.095  10.771   1.782  0.0089  0.1474 -0.1172
 2813W        W13073   3.247   2.956   8.042 -0.0114 -0.0656  0.1448
 2814W        W13074   3.321   3.069   7.476  0.0476 -0.0691 -0.4051
 2815W        W13075   0.501   4.837   7.775  0.1713  0.1210  0.2620
 2816W        W13076  10.375  13.796   8.583  0.1014 -0.3444  0.1202
 2817W        W13077  14.309   0.108   1.275  0.2572 -0.2100 -0.2402
 2818W        W13078  12.897   6.689   1.244  0.0446 -0.0976  0.2558
 2819W        W13079   7.400   6.972   6.883  0.0020 -0.1436  0.0899
 2820W        W13080  12.247   9.716   7.041 -0.1403  0.2791  0.2662
 2821W        W13081   0.263  16.466   1.548  0.3184  0.1397 -0.0416
 2822W        W13082  10.870   7.602   1.969  0.0649  0.1715  0.4144
 2823W        W13083   9.491   7.896   0.228 -0.3879  0.0897 -0.1246
 2824W        W13084  15.320  10.659   6.705 -0.1689 -0.0165 -0.2883
 2825W        W13085  15.892   6.112   0.345  0.2930 -0.0047 -0.0578
 2826W        W13086   0.051   8.762   1.358 -0.1194 -0.1688  0.0359
 2827W        W13087  14.938   6.678   8.599 -0.1931  0.0001  0.0876
 2828W        W13088  14.370   3.980   8.339  0.1495 -0.1444  0.0358
 2829W        W13089  13.409   0.401   1.524  0.2291 -0.1188  0.1222
 2830W        W13090   2.014   5.948   7.476 -0.2534 -0.0942 -0.2039
 2831W        W13091   0.988   8.239   7.694 -0.2186 -0.2133  0.2110
 2832W        W13092   1.275   0.226   7.491 -0.0249 -0.2610  0.2307
 2833W        W13093  11.212   6.941   5.958  0.0497 -0.3580 -0.0860
 2834W        W13094   2.181   3.980   1.831  0.2510 -0.0425 -0.0095
 2835W        W13095   0.006   6.687   7.368 -0.0839  0.2761  0.3252
 2836W        W13096   3.902   4.645   7.400  0.1713  0.0348 -0.1803
 2837W        W13097  11.857   0.547   0.967 -0.1489 -0.2168  0.0973
 2838W        W13098  13.985   2.373   1.546  0.1758  0.0791 -0.0217
 2839W        W13099   3.668   7.394   7.645  0.2885 -0.1208  0.1415
 2840W        W13100  10.645   3.786   0.639 -0.2372  0.2561  0.2209
 2841W        W13101   0.557   6.714   8.607 -0.2078 -0.0591 -0.2038
 2842W        W13102   1.771   9.105   2.085 -0.1911 -0.0161 -0.1385
 2843W        W13103  14.383   5.031   7.892 -0.1099  0.0740 -0.2355
 2844W        W13104  13.149   1.942   0.782  0.0420 -0.3781  0.1075
 2845W        W13105   9.939   8.602   6.883  0.0598 -0.1819 -0.2351
 2846W        W13106  10.014   6.808   6.821  0.0773  0.0697  0.1534
 2847W        W13107  10.068   3.444   0.326 -0.0707  0.0318  0.1360
 2848W        W13108   9.171   3.741   7.139  0.2481 -0.2857 -0.2806
 2849W        W13109  13.709   4.727   8.664  0.0960 -0.2556 -0.0469
 2850W        W13110  11.882   5.750   7.577 -0.1020 -0.2036  0.0094
 2851W        W13111   3.268   8.461   6.728  0.1250  0.5571  0.0148
 2852W        W13112   1.017   7.271   6.907  0.3605 -0.4248  0.0068
 2853W        W13113   3.231   2.642   8.389  0.4427  0.0566 -0.2382
 2854W        W13114   4.527   5.459   6.247 -0.2517  0.0178  0.4986
 2855W        W13115  16.420   0.487   0.594 -0.1299 -0.1436  0.0934
 2856W        W13116  14.283   3.921   0.881  0.0513  0.1328  0.0749
 2857W        W13117  13.412   6.059   1.390  0.2163 -0.0108 -0.0420
 2858W        W13118  14.074   4.908   8.315 -0.2207 -0.3398 -0.0159
 2859W        W13119   8.016   1.392   7.024  0.3680 -0.1795 -0.4426
 2860W        W13120  10.277   2.354   6.809  0.2568 -0.4285  0.0995
 2861W        W13121  16.453   7.519   8.580  0.1226 -0.1744  0.2266
 2862W        W13122  14.757   3.838   8.580 -0.0085 -0.1672 -0.0711
 2863W        W13123  12.225   4.325   8.017 -0.3365 -0.1305 -0.0917
 2864W        W13124   7.045   2.074   1.999  0.2015  0.4560  0.1716
 2865W        W13125  12.495   7.066   8.350 -0.1755  0.1118 -0.0408
 2866W        W13126  16.485   2.540   5.997  0.0706  0.0129  0.0511
 2867W        W13127  14.698   6.625   2.281 -0.0500 -0.0618 -0.1130
 2868W        W13128  15.312   0.868   0.501 -0.1089  0.0381  0.0444
 2869W        W13129  16.051   6.709   1.975  0.0514 -0.3116 -0.0488
 2870W        W13130  15.003   5.088   6.817  0.1665  0.1201  0.1259
 2871W        W13131   0.266   3.344   8.157  0.2328  0.2707 -0.0597
 2872W        W13132  14.528   7.662   6.742 -0.0513  0.2747  0.1362
 2873W        W13133   2.643   0.847   8.378 -0.0106 -0.1420  0.0356
 2874W        W13134  10.597   3.286   0.484  0.2068  0.1007 -0.0052
 2875W        W13135  15.257   4.537   8.378  0.0614 -0.1647  0.1264
 2876W        W13136   7.975  15.527   6.383  0.1253  0.0044 -0.0787
 2877W        W13137  16.535   7.057   7.748  0.2488 -0.1425 -0.2378
 2878W        W13138   6.193   6.408   8.317  0.4250  0.1670 -0.0937
 2879W        W13139  10.946   9.356   7.025  0.0438  0.1477  0.1906
 2880W        W13140  15.050   6.494   1.189 -0.0203 -0.0372 -0.1742
 2881W        W13141   9.634  10.692   6.957 -0.1637 -0.0591 -0.1115
 2882W        W13142  14.055  13.277   0.842 -0.2215  0.1321 -0.1750
 2883W        W13143  10.547   5.041   0.322 -0.0978 -0.1057 -0.1395
 2884W        W13144   5.432   4.125   2.356 -0.0376  0.0515 -0.0316
 2885W        W13145  12.579   7.380   7.975 -0.0902  0.1039 -0.1114
 2886W        W13146  15.606   1.114   1.454 -0.3551  0.2414  0.1471
 2887W        W13147   9.698   4.490   0.079  0.2572 -0.0224  0.0282
 2888W        W13148   0.887   3.784   7.694 -0.1315 -0.1168 -0.0732
 2889W        W13149  15.503   7.460   7.825 -0.4069 -0.0937  0.1246
 2890W        W13150  12.710   4.641   5.992  0.2912  0.2164 -0.2006
 2891W        W13151   1.783  14.917   7.461 -0.0178 -0.0060 -0.4316
 2892W        W13152  10.855   4.211   1.985  0.0951 -0.2707  0.2002
 2893W        W13153  11.743   1.027   0.797  0.2427 -0.0232  0.2738
 2894W        W13154   7.182   3.732   7.472  0.3079  0.1594  0.0163
 2895W        W13155  14.355   1.031   7.109  0.2263  0.0489  0.2728
 2896W        W13156  16.409   3.588   8.335 -0.0730 -0.1206 -0.2275
 2897W        W13157  16.004  10.645   0.522 -0.1190 -0.1557  0.1166
 2898W        W13158  11.624   7.875   6.966  0.3520  0.0852  0.1017
 2899W        W13159  16.435   5.885   6.674 -0.1841 -0.2253 -0.1026
 2900W        W13160  12.436  12.860   7.253 -0.0029 -0.0144 -0.0899
 2901W        W13161   4.560   7.059   1.960  0.3137  0.1469 -0.1642
 2902W        W13162   1.321   8.843   0.405 -0.0077  0.2455  0.0274
 2903W        W13163  16.108   3.267   0.830 -0.0311  0.3028 -0.0454
 2904W        W13164   4.511   5.388   1.857 -0.1281  0.1174  0.1524
 2905W        W13165  12.815   3.247   7.518 -0.2041  0.0413  0.1154
 2906W        W13166  16.367  10.241   0.640 -0.2543  0.3869  0.1175
 2907W        W13167  15.200   3.217   1.165 -0.2378 -0.1023  0.0854
 2908W        W13168  15.668   6.747   7.055 -0.3184 -0.1778 -0.0583
 2909W        W13169  13.615   4.672   8.171  0.2536  0.0861 -0.2662
 2910W        W13170  10.348   7.622   0.597  0.0400  0.1478  0.1561
 2911W        W13171  14.818   7.308   1.589  0.0798  0.0079  0.0585
 2912W        W13172  15.360   9.171   0.297 -0.1783 -0.2180  0.1383
 2913W        W13173  14.793   3.914   2.296  0.2299 -0.2135  0.1112
 2914W        W13174   1.909   7.365   6.649 -0.0389  0.1357 -0.1325
 2915W        W13175   4.105   3.145   0.540 -0.0092  0.0201 -0.1546
 2916W        W13176   0.733   8.040   0.180  0.0726 -0.0425 -0.1275
 2917W        W13177   9.751   8.966   1.010  0.2390  0.0997 -0.0941
 2918W        W13178  14.872   7.528   6.413  0.3232  0.4524 -0.0170
 2919W        W13179   4.673   7.598   1.218  0.1684  0.1754 -0.2562
 2920W        W13180  15.458   9.851   7.987  0.0443  0.4635 -0.2465
 2921W        W13181  12.587   7.064   1.699 -0.1117 -0.3253 -0.2150
 2922W        W13182   2.081   7.256   1.610  0.1512  0.1700 -0.2880
 2923W        W13183  16.344   9.643   6.979 -0.1137  0.0094  0.0909
 2924W        W13184   1.031   5.224   7.170 -0.2154  0.0295 -0.2049
 2925W        W13185  12.231   8.892   8.203 -0.0500  0.1660  0.2309
 2926W        W13186   4.271  11.875   7.923  0.0488 -0.1039 -0.0807
 2927W        W13187   9.225  11.040   8.338 -0.1841 -0.1432 -0.2559
 2928W        W13188  13.727  10.266   1.426 -0.1722 -0.2187 -0.0088
 2929W        W13189  13.657  11.238   1.469  0.0470 -0.4582  0.0742
 2930W        W13190   2.339  11.592   6.602 -0.4175 -0.0591  0.0488
 2931W        W13191  16.302   3.123   6.151 -0.2037  0.0724  0.1047
 2932W        W13192  15.596   7.111   7.476  0.0690  0.0802  0.2149
 2933W        W13193   5.255   7.837   1.044 -0.1351 -0.0706  0.2845
 2934W        W13194  16.453   9.652   0.562  0.0194 -0.0970 -0.1937
 2935W        W13195   7.852  10.452   7.877  0.0814 -0.1530  0.2350
 2936W        W13196   5.473  12.603   8.384  0.1743 -0.0831  0.1691
 2937W        W13197  15.809  10.475   1.184 -0.3618  0.0521  0.0282
 2938W        W13198  15.204   6.832   1.575  0.4994  0.1228 -0.1811
 2939W        W13199   0.439   9.221   6.908 -0.5346 -0.0896 -0.0143
 2940W        W13200  15.454   9.229   8.085 -0.3614 -0.3785  0.0194
 2941W        W13201   0.779   6.743   8.105  0.2084 -0.0989 -0.0843
 2942W        W13202  13.900  11.373   6.807  0.1672 -0.0064 -0.1865
 2943W        W13203   1.940   4.131   7.872  0.0416 -0.0034 -0.1656
 2944W        W13204   1.631  14.951   1.451  0.1052 -0.1077  0.3122
 2945W        W13205   5.531  10.273   6.860  0.0761 -0.2205  0.0793
 2946W        W13206  15.485   7.636   8.446  0.0561 -0.0635  0.1781
 2947W        W13207   3.098   5.553   0.443  0.0351  0.0918  0.3870
 2948W        W13208   5.082   7.118   7.362 -0.0961  0.1615  0.2047
 2949W        W13209   1.332   9.700   7.858  0.2309 -0.2900  0.0008
 2950W        W13210   3.338   4.406   6.803 -0.3627  0.0342 -0.2763
 2951W        W13211   2.633   5.689   2.272  0.1904 -0.0120 -0.0253
 2952W        W13212  14.464   6.732   0.690 -0.2422  0.2245  0.0024
 2953W        W13213   6.073   5.043   7.242 -0.1338 -0.1525  0.0286
 2954W        W13214   6.694   3.835   8.276 -0.1107  0.1190  0.0443
 2955W        W13215   2.085   5.517   1.472  0.2790  0.1870  0.0074
 2956W        W13216   9.343   7.208   7.085 -0.0779  0.0765 -0.2178
 2957W        W13217   1.395   8.598   8.655 -0.0583 -0.2857 -0.1278
 2958W        W13218   2.647  12.298   1.409 -0.1353 -0.3038  0.5898
 2959W        W13219   0.758   5.975   6.287  0.2278  0.1829  0.0216
 2960W        W13220  15.997   1.580   0.277  0.3181  0.1834 -0.1320
 2961W        W13221   1.835   1.784   6.790  0.0298  0.0676 -0.2300
 2962W        W13222   1.710   7.830   7.994 -0.2599  0.0620 -0.0834
 2963W        W13223   4.281   4.124   0.860  0.2934  0.4288 -0.5440
 2964W        W13224  15.738   9.992   1.146 -0.3298  0.1380 -0.1320
 2965W        W13225   0.131  11.105   8.241 -0.0386  0.0652 -0.0834
 2966W        W13226   7.742  10.937   1.278 -0.0677  0.2889  0.1998
 2967W        W13227   2.128   6.933   8.148 -0.0669  0.0043  0.3914
 2968W        W13228  16.324  10.271   8.220  0.0650  0.4115  0.0104
 2969W        W13229   1.900   8.684   0.047  0.3230 -0.1566  0.1553
 2970W        W13230   1.633  11.800   8.151 -0.1873  0.0679  0.0465
 2971W        W13231   5.192   2.765   8.146 -0.3396 -0.0606 -0.2060
 2972W        W13232   8.839   7.077   7.175 -0.2335 -0.4301  0.1486
 2973W        W13233   5.697  10.871   0.818 -0.0247  0.0561  0.3050
 2974W        W13234   2.082   4.525   2.003  0.1127  0.1009  0.4730
 2975W        W13235   4.649  14.255   1.187  0.0048 -0.0782  0.1550
 2976W        W13236   5.168  10.105   1.689 -0.0325  0.0214  0.4309
 2977W        W13237  12.119   2.178   0.807 -0.1364  0.0786 -0.2012
 2978W        W13238   2.380  10.127   8.002 -0.1857  0.1971  0.2693
 2979W        W13239   5.073   5.217   0.629  0.0345  0.0776  0.0183
 2980W        W13240   5.493   6.587   0.339 -0.1385 -0.0664  0.3903
 2981W        W13241   0.506  10.689   8.206  0.1542 -0.4379  0.0725
 2982W        W13242   4.154  10.172   8.411  0.2068  0.4030  0.1267
 2983W        W13243   0.789  11.509   7.688  0.1555  0.1974 -0.0968
 2984W        W13244  12.610  12.050   7.973  0.0076  0.0386  0.3641
 2985W        W13245   3.521   7.655   0.772  0.2135  0.1246 -0.2523
 2986W        W13246  14.675  11.481   7.510  0.1610 -0.3816 -0.3837
 2987W        W13247   1.909   6.874   8.576  0.0840 -0.3225 -0.0728
 2988W        W13248   1.861   5.438   0.510 -0.3984 -0.0923  0.1730
 2989W        W13249   1.177   8.627   8.125 -0.2958 -0.1072  0.1325
 2990W        W13250   3.603   9.411   6.506 -0.1363 -0.1926 -0.0162
 2991W        W13251   0.503   5.976   5.880 -0.0123 -0.1854  0.1069
 2992W        W13252  15.964   8.673   0.696 -0.1143 -0.1202 -0.0305
 2993W        W13253  12.641   8.845   7.901 -0.3822  0.0869 -0.0331
 2994W        W13254  13.650  11.700   5.947  0.1842 -0.2278  0.1668
 2995W        W13255   1.149  10.639   7.384  0.0272  0.0301 -0.0215
 2996W        W13256  12.094   9.447   2.088 -0.2057  0.1540  0.0740
 2997W        W13257   1.478   9.255   1.391 -0.1396  0.1106  0.0520
 2998W        W13258   2.576   4.126   7.083 -0.2044  0.2016 -0.3179
 2999W        W13259   0.175   6.577   7.831 -0.0629 -0.0860 -0.0970
 3000W        W13260   0.631   8.777   1.241  0.2431 -0.1076  0.2622
 3001W        W13261   0.667   7.154   8.472 -0.1324 -0.2841  0.0899
 3002W        W13262  14.500   9.629   0.493 -0.3287 -0.1569  0.4522
 3003W        W13263   9.754   5.624   7.927 -0.0100 -0.1769  0.0734
 3004W        W13264   4.129  10.590   0.578 -0.1898 -0.0842  0.1662
 3005W        W13265   4.678  11.547   6.495 -0.4739 -0.0493 -0.2007
 3006W        W13266  12.998   9.370   7.061  0.0868  0.1346 -0.0859
 3007W        W13267   2.399   2.854   1.973 -0.1897  0.0029  0.0946
 3008W        W13268   3.109  10.907   1.906 -0.2005  0.1737 -0.1481
 3009W        W13269  16.473   8.732   2.462  0.1160  0.2735  0.1675
 3010W        W13270  16.586   6.160   0.989 -0.2019  0.0187  0.2850
 3011W        W13271  14.972  15.694   2.373  0.0993 -0.0739 -0.2733
 3012W        W13272   1.339   8.029   0.675  0.2569 -0.4017 -0.0569
 3013W        W13273   5.424   6.062   0.637  0.2512 -0.0357  0.2475
 3014W        W13274  12.574   1.195   8.460  0.0607  0.0235  0.0304
 3015W        W13275   2.311  11.971   1.200 -0.0988  0.1484 -0.1370
 3016W        W13276   6.483   7.488   1.702 -0.2990 -0.0830  0.0513
 3017W        W13277   2.306   8.323   7.339 -0.0443 -0.0748  0.1866
 3018W        W13278  16.325   9.108   6.981 -0.1375  0.3268  0.1783
 3019W        W13279   0.656  11.071   7.924  0.0473 -0.1928  0.2231
 3020W        W13280   2.735  14.688   1.412  0.0658  0.0156 -0.0288
 3021W        W13281   2.610   3.408   0.506 -0.1296  0.0814 -0.1528
 3022W        W13282   2.846   6.774   1.262 -0.0306  0.0728 -0.1180
 3023W        W13283   2.536   9.330   8.380  0.1308 -0.1670 -0.0422
 3024W        W13284   0.523  16.045   1.710  0.1009 -0.0400  0.4305
 3025W        W13285  15.105   9.564   6.176  0.1120  0.1247 -0.2353
 3026W        W13286   3.335   9.325   6.886  0.2265 -0.2156 -0.1169
 3027W        W13287   1.530   4.830   0.208 -0.0718 -0.0717 -0.1231
 3028W        W13288  12.928   8.293   8.410 -0.0641 -0.1302 -0.2417
 3029W        W13289   2.450   8.541   6.826 -0.0265 -0.2607  0.1311
 3030W        W13290   0.750   2.410   7.101  0.1379 -0.1969  0.1315
 3031W        W13291   8.887   5.267   1.681 -0.2938 -0.0687  0.0569
 3032W        W13292  14.097   8.645   6.649 -0.1276 -0.0277  0.1715
 3033W        W13293   1.280   9.691   1.362 -0.2828  0.1922  0.1475
 3034W        W13294  15.326  10.485   1.205  0.0318 -0.2779 -0.5359
 3035W        W13295   9.902  14.464   7.280 -0.2066 -0.1443 -0.5215
 3036W        W13296  11.898   9.108   2.311  0.1630 -0.0697 -0.0457
 3037W        W13297   4.255   7.552   1.841 -0.2984 -0.5461 -0.2603
 3038W        W13298   5.103  11.722   7.273  0.0907  0.4691 -0.3345
 3039W        W13299   1.446   8.709   1.254  0.1358 -0.2422 -0.0840
 3040W        W13300  15.467  10.164   6.821  0.0626  0.1811 -0.2375
 3041W        W13301  13.988   7.341   2.134  0.0098  0.1651 -0.0623
 3042W        W13302   9.221  11.979   8.591  0.0836  0.0015  0.2605
 3043W        W13303   1.157   7.392   0.881  0.0754  0.2151  0.2020
 3044W        W13304   1.983   8.740   6.702  0.1884 -0.0568  0.0870
 3045W        W13305   5.865   8.290   7.468  0.3906 -0.2325  0.2077
 3046W        W13306  15.779   6.047   8.495 -0.0292  0.1824  0.2845
 3047W        W13307   6.383   7.208   7.163  0.0244 -0.1533 -0.3246
 3048W        W13308  16.088  14.432   1.295  0.0532 -0.2408 -0.1374
 3049W        W13309  12.055   7.432   6.948 -0.1489  0.0006 -0.0245
 3050W        W13310  12.339  16.554   6.887 -0.5226  0.2686  0.0962
 3051W        W13311   4.780   8.925   1.945  0.1972 -0.0711  0.0424
 3052W        W13312  15.170   4.443   0.213 -0.0390 -0.1116  0.1547
 3053W        W13313   2.054   4.770   8.673 -0.1171  0.0661  0.1094
 3054W        W13314   6.489   4.896   7.542  0.2040 -0.1559 -0.1772
 3055W        W13315  10.067   8.045   1.537  0.1366 -0.1911  0.1403
 3056W        W13316   1.668   9.709   6.112  0.1189 -0.0806 -0.0236
 3057W        W13317   7.422   9.316   6.739 -0.2367 -0.0562  0.0097
 3058W        W13318   0.900   2.067   5.902 -0.1616 -0.2054 -0.0823
 3059W        W13319  15.665   8.668   0.304 -0.0065  0.0691 -0.2131
 3060W        W13320   4.462  13.913   1.517  0.1455  0.1028  0.2962
 3061W        W13321   1.194  14.739   2.131 -0.2491 -0.2559  0.1455
 3062W        W13322  16.101   6.339   8.510 -0.0538  0.0380 -0.4140
 3063W        W13323   5.503   7.206   6.805 -0.5340 -0.0223  0.1613
 3064W        W13324   3.905  11.039   6.938 -0.0278 -0.1412 -0.2468
 3065W        W13325   8.729   7.946   0.216  0.0549  0.4337 -0.1484
 3066W        W13326   8.709  13.476   0.916 -0.0198  0.0654 -0.1949
 3067W        W13327   2.816   6.607   7.365  0.1172  0.1449  0.0158
 3068W        W13328   0.026  15.375   7.903 -0.0994  0.0188 -0.2024
 3069W        W13329   2.498  11.062   0.756  0.0094  0.1641 -0.0346
 3070W        W13330   4.273  12.855   0.669 -0.1385 -0.2562 -0.0578
 3071W        W13331   7.106  10.955   8.597 -0.1493  0.0299 -0.2201
 3072W        W13332   5.229   9.155   0.717 -0.0179  0.1472  0.1544
 3073W        W13333   5.456  11.292   7.520  0.0136 -0.3791 -0.1851
 3074W        W13334   2.565  12.912   8.596  0.0627  0.3129  0.2382
 3075W        W13335   7.265  10.062   8.422  0.1597  0.3730 -0.1611
 3076W        W13336   3.772   6.563   2.194 -0.3238  0.3050  0.0187
 3077W        W13337  15.405   6.348   0.589  0.2275 -0.3814 -0.2511
 3078W        W13338   8.537   5.500   0.566  0.0012  0.0021  0.1202
 3079W        W13339   1.619   6.034   6.386  0.5452  0.2097 -0.4294
 3080W        W13340   3.265   5.413   6.644 -0.0505  0.0959 -0.1226
 3081W        W13341   5.373   6.296   7.812 -0.1659  0.1944 -0.0060
 3082W        W13342  14.270   9.297   8.290  0.1375 -0.0059 -0.3582
 3083W        W13343  15.079  12.245   6.050  0.0273 -0.4379  0.1522
 3084W        W13344   4.044  12.027   1.632 -0.1860 -0.4335 -0.2275
 3085W        W13345   1.689  11.294   7.951 -0.0160 -0.0959  0.0523
 3086W        W13346   2.172  10.010   6.662 -0.0204 -0.1648 -0.0462
 3087W        W13347  13.712   9.152   8.294 -0.0495 -0.2156 -0.1649
 3088W        W13348   1.539   8.488   2.242  0.0563  0.0526  0.1691
 3089W        W13349   4.699   5.574   8.245 -0.1552  0.0445 -0.1293
 3090W        W13350   0.812   7.462   0.237 -0.0209 -0.1759  0.2079
 3091W        W13351  15.415  11.883   0.163 -0.0205  0.0110  0.3494
 3092W        W13352   1.829  13.533   5.862 -0.1853 -0.0317 -0.2549
 3093W        W13353  15.962   1.236   5.920  0.1982 -0.1984 -0.0046
 3094W        W13354   2.133  12.711   6.769 -0.1783  0.2539  0.1057
 3095W        W13355   0.878  10.612   7.803 -0.0476 -0.2241  0.0204
 3096W        W13356   4.006  11.884   0.668  0.0587  0.0992  0.1826
 3097W        W13357   5.957   6.633   0.673 -0.0339  0.0454  0.2514
 3098W        W13358   8.739   5.435   8.198  0.1893 -0.0715 -0.0415
 3099W        W13359   3.227   7.963   7.528 -0.0612  0.1156 -0.1257
 3100W        W13360  15.511  10.231   1.590  0.0674  0.3139 -0.1337
 3101W        W13361   6.193   7.807   8.271  0.1565  0.1345 -0.0347
 3102W        W13362   4.617  15.496   7.988  0.0481  0.2336 -0.0101
 3103W        W13363   4.460   4.545   1.026  0.1375 -0.3155 -0.1286
 3104W        W13364   2.936   4.846   7.292  0.3390 -0.1760 -0.1881
 3105W        W13365  16.274   8.812   6.615  0.0820  0.2212 -0.1289
 3106W        W13366   5.823   9.555   7.248  0.1533 -0.2003  0.0056
 3107W        W13367   2.075   7.483   2.258 -0.1440 -0.3017  0.1895
 3108W        W13368   7.146  11.301   7.754  0.0962 -0.2204 -0.2421
 3109W        W13369   1.630  10.464   7.467 -0.0791  0.0637  0.2386
 3110W        W13370   4.273  10.062   0.391 -0.3097  0.0156  0.0007
 3111W        W13371  16.028   9.392   7.874  0.0854  0.3349  0.0036
 3112W        W13372  15.206  11.432   0.196 -0.0088  0.1172  0.3811
 3113W        W13373  16.084  10.380   1.561  0.0949  0.1501 -0.0182
 3114W        W13374   4.648  10.748   2.613 -0.1972 -0.1069 -0.0388
 3115W        W13375  16.585  10.595   0.375 -0.2657 -0.3302 -0.0210
 3116W        W13376   6.273   9.905   1.805  0.0129 -0.3446  0.1372
 3117W        W13377  15.868   7.496   7.481  0.2586  0.1110  0.0268
 3118W        W13378   6.693   6.664   7.334 -0.3169 -0.0659  0.0276
 3119W        W13379   1.027   8.611   1.546 -0.0230 -0.0894 -0.1472
 3120W        W13380  16.473   1.492   7.359  0.2314 -0.0325 -0.1048
 3121W        W13381   4.247  11.490   7.212  0.4154  0.1704  0.1902
 3122W        W13382   3.967  13.872   1.645  0.0660 -0.1180  0.3426
 3123W        W13383   2.637   7.423   7.255 -0.0955  0.1807  0.1907
 3124W        W13384  15.818   2.462   0.887  0.1114 -0.0890 -0.2384
 3125W        W13385   2.722   6.301   1.451 -0.1013  0.0177 -0.3110
 3126W        W13386   2.919   8.407   7.549 -0.0331  0.2022 -0.0149
 3127W        W13387   6.544   3.851   1.860  0.0837  0.1184  0.0755
 3128W        W13388   0.534   0.734   8.605  0.0909  0.2270 -0.0120
 3129W        W13389   9.146  10.982   0.157 -0.1444  0.2200 -0.0724
 3130W        W13390   4.404   5.823   1.045 -0.2278 -0.0229  0.0737
 3131W        W13391   9.460   6.831   1.997  0.0505  0.0364 -0.1999
 3132W        W13392   7.932  12.404   8.234 -0.0032  0.1699 -0.0624
 3133W        W13393   7.297   4.878   7.557  0.2517 -0.2197 -0.1009
 3134W        W13394   4.528   9.142   8.226 -0.1272 -0.0800 -0.1806
 3135W        W13395   3.890   5.339   0.510 -0.3382  0.0000 -0.1889
 3136W        W13396   2.771   3.827   7.538  0.1699 -0.1966 -0.1200
 3137W        W13397   6.837   0.270   1.859  0.1274  0.0380 -0.0448
 3138W        W13398   4.382  11.104   6.729 -0.2083  0.1823  0.1597
 3139W        W13399   9.320   7.780   1.494  0.0831  0.2492  0.2481
 3140W        W13400  10.623   1.149   0.660  0.1547 -0.0640  0.0562
 3141W        W13401   1.857  12.835   2.060  0.1685 -0.2578 -0.0536
 3142W        W13402  10.517   1.820   8.091  0.0087  0.0034  0.0518
 3143W        W13403   8.589  11.485   0.571  0.2725  0.0779  0.0468
 3144W        W13404  10.000   9.831   1.831  0.2444 -0.0712  0.0569
 3145W        W13405   7.297   3.313   7.294  0.2043  0.2890  0.1183
 3146W        W13406   4.211   6.675   0.640 -0.1659  0.0211  0.1609
 3147W        W13407   2.367   5.569   0.399  0.0418 -0.2333 -0.1289
 3148W        W13408   1.080  10.698   6.849  0.3993 -0.0691 -0.1568
 3149W        W13409   2.000   3.829   8.305  0.0953 -0.2929 -0.1764
 3150W        W13410   5.054   7.424   6.959 -0.0825 -0.0826 -0.2602
 3151W        W13411   6.331   8.763   0.015  0.0720 -0.2986  0.2393
 3152W        W13412   7.689   8.891   0.310 -0.1223 -0.2250  0.1968
 3153W        W13413   9.320   5.002   1.668 -0.0183  0.1713 -0.0528
 3154W        W13414   2.817  13.023   6.922 -0.1975  0.2193  0.0856
 3155W        W13415  12.672  11.726   0.250 -0.3800  0.0722 -0.2196
 3156W        W13416   2.723  11.882   0.942 -0.0980  0.0886  0.1749
 3157W        W13417   0.456   3.834   8.036  0.2703  0.1308 -0.2500
 3158W        W13418   9.556   5.468   0.299 -0.0134 -0.2715 -0.0400
 3159W        W13419  11.616  13.137   7.967  0.0571 -0.2330 -0.1935
 3160W        W13420   7.159  11.992   1.910  0.0962  0.0843  0.0377
 3161W        W13421  12.454  10.852   6.090 -0.2854  0.3404  0.0251
 3162W        W13422   3.265   7.999   1.465 -0.1975  0.0259  0.1305
 3163W        W13423   5.909  13.146   8.519  0.1415 -0.3149 -0.2717
 3164W        W13424   4.673   8.328   7.837  0.3542  0.1265 -0.0940
 3165W        W13425  15.395   6.454   7.325 -0.0832 -0.0294  0.1090
 3166W        W13426   6.492  13.405   8.246  0.1126  0.1092 -0.2201
 3167W        W13427   6.491   8.248   7.413  0.1354 -0.1566  0.0332
 3168W        W13428   6.962   6.434   7.735 -0.3570 -0.2354 -0.1807
 3169W        W13429   8.875  11.974   2.098 -0.0142  0.1744 -0.0019
 3170W        W13430  15.367  15.257   6.612 -0.1822 -0.2776 -0.2208
 3171W        W13431   8.675  14.523   6.734  0.0131  0.0130 -0.0191
 3172W        W13432   2.608   0.714   7.693 -0.3954 -0.3194  0.1749
 3173W        W13433  10.245   4.497   0.096  0.1465  0.1098  0.1028
 3174W        W13434   1.093  10.166   7.586  0.1268  0.1460  0.0701
 3175W        W13435   5.429   8.309   7.814  0.0512  0.0230  0.1955
 3176W        W13436   7.331  11.878   8.456 -0.0986 -0.3171 -0.1085
 3177W        W13437   8.115  12.546   7.586 -0.0287  0.1615  0.1587
 3178W        W13438   3.006   9.447   0.441 -0.2203 -0.0202 -0.0943
 3179W        W13439  15.985  12.057   7.357  0.0997  0.2021 -0.2804
 3180W        W13440  12.619   6.458   6.108  0.0042 -0.2146 -0.0602
 3181W        W13441   6.732  13.691   7.299 -0.0962 -0.1904 -0.1163
 3182W        W13442   5.412  12.016   2.381 -0.1826 -0.1599  0.0174
 3183W        W13443   1.189   9.776   0.418  0.1861 -0.0716  0.0738
 3184W        W13444   9.667   3.063   0.327  0.0056  0.3351 -0.0007
 3185W        W13445   9.289  12.926   7.342  0.2092 -0.3947  0.4302
 3186W        W13446   3.769   8.912   0.108  0.0988 -0.0023  0.0290
 3187W        W13447  10.669   8.739   1.257 -0.0774 -0.3137  0.4679
 3188W        W13448   8.385   7.869   1.324  0.1633  0.2437  0.3096
 3189W        W13449  16.481   8.934   6.150 -0.1694 -0.0417  0.1809
 3190W        W13450   6.694   5.186   1.241  0.3163 -0.0210  0.3402
 3191W        W13451   5.689  11.302   7.064 -0.1066  0.1874 -0.5776
 3192W        W13452   5.730   9.814   7.690 -0.3170 -0.0683  0.1099
 3193W        W13453   9.994   9.672   8.103  0.4294 -0.2812 -0.0474
 3194W        W13454  11.465   2.874   8.677  0.0075 -0.1137 -0.1359
 3195W        W13455   4.723   5.626   6.682  0.3357 -0.2643 -0.0750
 3196W        W13456   5.200   7.842   2.041  0.1617  0.3032  0.1358
 3197W        W13457  14.218   4.772   0.215  0.2158  0.0010 -0.1480
 3198W        W13458   7.375   8.561   7.655 -0.1862  0.0104 -0.2577
 3199W        W13459   5.465   8.385   8.362 -0.0458  0.0593 -0.0684
 3200W        W13460   2.000  11.844   0.820 -0.0452  0.0073 -0.1864
 3201W        W13461   2.502  11.314   8.333  0.1107 -0.0239 -0.3569
 3202W        W13462   5.526  14.446   8.226  0.2250 -0.2205 -0.1093
 3203W        W13463  13.693  10.977   1.959  0.0931 -0.0790  0.0676
 3204W        W13464   7.219  12.970   1.736 -0.3252  0.0722 -0.0974
 3205W        W13465   3.808   4.333   0.392  0.0535  0.0234  0.2074
 3206W        W13466  10.151   9.949   1.352 -0.2199 -0.2126 -0.0767
 3207W        W13467   7.024   1.160   6.598 -0.2710  0.0293 -0.4926
 3208W        W13468   1.131  11.121   7.842  0.1668  0.1826  0.0838
 3209W        W13469   4.527  10.727   0.255  0.1343  0.0373 -0.0064
 3210W        W13470  14.516   1.795   0.359 -0.0041 -0.3177 -0.1764
 3211W        W13471   8.950  15.654   0.039  0.1031  0.1012 -0.1260
 3212W        W13472   4.699  11.470   6.984 -0.0080 -0.0567  0.0108
 3213W        W13473   8.467  10.385   1.771 -0.4672  0.2199  0.0794
 3214W        W13474   3.341   4.470   7.319 -0.0420  0.3963 -0.1555
 3215W        W13475   8.220  11.889   7.217 -0.2707 -0.1098 -0.2464
 3216W        W13476  14.949  11.875   6.425 -0.0820 -0.0781  0.1231
 3217W        W13477   3.995   8.447   1.932  0.0725  0.0856  0.0590
 3218W        W13478   3.173   9.992   7.340 -0.0791 -0.1139  0.1917
 3219W        W13479   8.225   9.800   8.548 -0.0934 -0.0860  0.2168
 3220W        W13480   4.751  13.585   0.350  0.3960  0.0405 -0.1417
 3221W        W13481   7.542   3.815   8.052  0.0032 -0.1205  0.0399
 3222W        W13482   2.971   9.853   2.034  0.0047 -0.0283 -0.0311
 3223W        W13483   8.317   7.993   7.343  0.1691  0.3858 -0.3018
 3224W        W13484   4.729   8.958   7.132  0.0545  0.1605 -0.1671
 3225W        W13485   4.507  10.986   8.488  0.1362 -0.0541 -0.3394
 3226W        W13486   7.201   8.907   0.384  0.1885  0.1081 -0.1670
 3227W        W13487  12.421   6.468   1.045  0.2553 -0.2717  0.0951
 3228W        W13488   7.940   4.473   8.658  0.4634  0.1851 -0.0604
 3229W        W13489   7.712   3.701   7.455  0.2760 -0.1742  0.0802
 3230W        W13490   1.949   5.531   6.430  0.1577 -0.1279  0.3031
 3231W        W13491   2.989   5.702   8.641  0.1301  0.0722  0.1539
 3232W        W13492   2.903   8.304   1.193 -0.2109 -0.0111  0.1398
 3233W        W13493   4.315   7.223   1.357  0.1723  0.2636  0.1361
 3234W        W13494   4.232   4.285   8.629 -0.0983 -0.0770  0.1496
 3235W        W13495   3.493   8.060   8.439 -0.2128 -0.4068  0.1310
 3236W        W13496   2.057   4.927   6.995 -0.2049 -0.0827  0.4861
 3237W        W13497   6.342   9.338   8.183 -0.1823  0.0468 -0.0188
 3238W        W13498   3.334  13.089   0.418  0.1993  0.2449 -0.2313
 3239W        W13499   5.190   2.853   0.017 -0.2659 -0.0401  0.2413
 3240W        W13500   4.507  13.090   8.306  0.2850 -0.1266 -0.0904
 3241W        W13501   0.010   8.445   0.601 -0.2307 -0.1227  0.0140
 3242W        W13502   5.674   3.016   1.135 -0.0722 -0.1400  0.2969
 3243W        W13503   5.942  11.295   0.896  0.0218  0.0023  0.2493
 3244W        W13504   8.283  16.040   0.898  0.1307  0.1991 -0.3864
 3245W        W13505   4.616   5.108   6.977 -0.1697 -0.0098  0.0256
 3246W        W13506   8.553   6.973   0.785 -0.2572 -0.1676 -0.0605
 3247W        W13507   5.808  10.527   0.325 -0.0760 -0.1641 -0.1612
 3248W        W13508  14.424   9.554   6.602 -0.0884  0.2748 -0.1516
 3249W        W13509   6.872   6.649   8.657  0.0474  0.3123 -0.1387
 3250W        W13510   6.074   6.309   1.650 -0.0018  0.2511 -0.1666
 3251W        W13511   5.799  12.591   6.685 -0.1742 -0.1166 -0.2144
 3252W        W13512   9.245  12.031   1.738 -0.1356  0.2620  0.4636
 3253W        W13513   8.514   8.333   1.211 -0.1332 -0.0962  0.3235
 3254W        W13514   2.126   3.419   6.932 -0.0075 -0.3167  0.0715
 3255W        W13515   3.576   5.782   1.722  0.0343 -0.0955 -0.1325
 3256W        W13516   6.945  16.208   7.955 -0.0315 -0.0690  0.2442
 3257W        W13517   2.254   9.047   0.804 -0.3517 -0.0707 -0.1276
 3258W        W13518   3.997  12.155   6.789  0.1004 -0.1071 -0.4388
 3259W        W13519   8.922   6.621   8.631 -0.3194  0.0497 -0.4218
 3260W        W13520   4.671  10.224   1.284  0.1403  0.2847  0.1303
 3261W        W13521   0.579   6.638   1.200 -0.2483 -0.0389  0.0040
 3262W        W13522  12.177  10.993   8.505  0.0007  0.3934  0.0375
 3263W        W13523  15.645   6.787   6.022 -0.1002  0.0272  0.0527
 3264W        W13524  11.159  13.867   0.873  0.2973  0.1124 -0.2953
 3265W        W13525   3.375   7.602   0.125 -0.0589 -0.2018  0.0566
 3266W        W13526   8.372   7.512   8.034  0.0093  0.0971 -0.1040
 3267W        W13527  15.805   3.148   0.345  0.1314 -0.4763 -0.0501
 3268W        W13528   3.008  13.404   0.718  0.1205  0.2546 -0.3605
 3269W        W13529   6.456  15.252   0.688 -0.0793 -0.1750  0.2249
 3270W        W13530   3.314  10.225   8.001 -0.1080  0.1214 -0.1455
 3271W        W13531   5.881  11.568   1.403  0.0155 -0.1879 -0.1718
 3272W        W13532  13.273   7.114   7.786 -0.3448  0.2844  0.0013
 3273W        W13533   7.640  12.506   1.006  0.0773 -0.0375  0.1780
 3274W        W13534  14.101   7.833   8.312  0.0715 -0.1047  0.0042
 3275W        W13535   4.757   8.182   7.295 -0.0403  0.0365 -0.1507
 3276W        W13536   5.659   2.561   7.287 -0.0880  0.1069  0.1110
 3277W        W13537   6.602   5.453   7.696 -0.2415 -0.1790 -0.0909
 3278W        W13538   5.553   9.978   7.279 -0.0345 -0.1186 -0.1049
 3279W        W13539  15.838   6.483   0.756 -0.1908 -0.1380  0.5056
 3280W        W13540  12.602   8.144   5.940 -0.1614  0.1579 -0.3827
 3281W        W13541   3.190  11.601   1.153  0.3149  0.0009 -0.0882
 3282W        W13542   3.121   9.322   2.446  0.0420 -0.1752  0.0529
 3283W        W13543   8.057  16.219   2.353 -0.1590  0.0971 -0.4964
 3284W        W13544   7.530   6.007   8.417 -0.2887  0.0301 -0.0157
 3285W        W13545   0.950   5.900   8.445  0.0111  0.4546  0.0058
 3286W        W13546   3.663   2.713   0.550  0.3720 -0.1752  0.1210
 3287W        W13547   4.482  11.938   8.349 -0.2560  0.1281 -0.1367
 3288W        W13548   7.924   3.969   7.085  0.0932 -0.1836  0.0404
 3289W        W13549   8.579   2.915   6.166  0.1014  0.4287 -0.3551
 3290W        W13550   5.798   9.789   1.802  0.0415 -0.2075 -0.1421
 3291W        W13551  14.401  13.648   7.731  0.0118 -0.1286 -0.0807
 3292W        W13552   3.687   5.042   8.655  0.4106 -0.1581 -0.2798
 3293W        W13553  16.255  13.007   6.706 -0.2253 -0.2053  0.0521
 3294W        W13554   0.529  11.398   1.847 -0.3358 -0.2743  0.1343
 3295W        W13555   6.544   8.790   6.453 -0.0406 -0.2104 -0.2639
 3296W        W13556   7.442   5.793   7.355  0.2254 -0.0040 -0.1173
 3297W        W13557  13.681   8.811   7.874 -0.5435 -0.1174 -0.1354
 3298W        W13558   6.572   3.192   6.619 -0.1501 -0.3018 -0.0095
 3299W        W13559   1.385   6.863   2.152  0.0422  0.1062  0.4099
 3300W        W13560   0.997   2.023   8.386  0.2914 -0.0073  0.0248
 3301W        W13561  15.595   8.266   7.033 -0.3543 -0.2242  0.1451
 3302W        W13562   4.288   8.937   7.787 -0.2444  0.0757  0.1635
 3303W        W13563   4.980   8.627   7.465  0.2181 -0.2677 -0.1428
 3304W        W13564   4.885   9.410   2.009  0.1571  0.3018  0.1045
 3305W        W13565   2.411   3.019   6.850 -0.0994  0.2096 -0.0712
 3306W        W13566   5.013   2.307   8.354  0.3614  0.3514  0.1134
 3307W        W13567   3.162  12.120   0.717  0.0825  0.1888 -0.3844
 3308W        W13568   3.062  12.907   0.041  0.4056 -0.0460 -0.1870
 3309W        W13569   9.444  11.520   8.587  0.3333 -0.4608  0.0738
 3310W        W13570   2.700   9.727   8.046 -0.0682  0.3674 -0.0692
 3311W        W13571   6.148   4.345   0.305 -0.3726  0.1162  0.1535
 3312W        W13572   6.333   5.724   6.441  0.0241  0.1408  0.1326
 3313W        W13573   9.216   6.753   7.210  0.0514  0.0396 -0.1772
 3314W        W13574   5.602   7.162   1.599  0.1528  0.0603  0.1937
 3315W        W13575  14.971   8.155   8.392  0.1210 -0.1221 -0.1560
 3316W        W13576   4.142   3.244   6.885  0.2236 -0.0334  0.1138
 3317W        W13577   5.166  15.204   2.005  0.2050 -0.2233  0.0806
 3318W        W13578   6.337   7.777   0.145 -0.0637  0.4353  0.1018
 3319W        W13579  16.046   8.892   0.060 -0.2872 -0.2396  0.1901
 3320W        W13580   5.700   7.733   8.469  0.0078  0.0487 -0.0234
 3321W        W13581   4.946   1.487   7.508  0.1265 -0.1341  0.0004
 3322W        W13582  10.309  11.979   6.632 -0.1241  0.0694  0.0257
 3323W        W13583   3.825   8.544   6.935 -0.0487  0.0413  0.1566
 3324W        W13584   9.349   6.336   8.544  0.3343  0.0836  0.0339
 3325W        W13585  10.372  12.037   5.940  0.1311 -0.1056 -0.3127
 3326W        W13586   7.977   9.263   7.345 -0.1414 -0.0566  0.0402
 3327W        W13587  11.728   3.500   6.810  0.1376  0.1220 -0.2762
 3328W        W13588   6.594   6.155   1.020 -0.0363 -0.2116 -0.0277
 3329W        W13589  13.287   5.211   6.265 -0.3528 -0.1802  0.0336
 3330W        W13590  12.773  13.248   7.415  0.0740  0.0738  0.1060
 3331W        W13591   7.763  14.616   2.318  0.0328  0.0125  0.2338
 3332W        W13592   0.292  15.721   8.292 -0.1180  0.0570 -0.0609
 3333W        W13593   5.810   5.750   1.600  0.1710 -0.0842  0.0012
 3334W        W13594   5.086   9.586   0.925 -0.2168  0.2054 -0.1858
 3335W        W13595   3.011   3.956   0.302 -0.0101  0.1025 -0.1079
 3336W        W13596   8.692   5.833   2.746  0.1413  0.0093  0.1560
 3337W        W13597   4.975   6.062   0.404 -0.1750 -0.0661 -0.1807
 3338W        W13598   4.295   9.115   0.041  0.4287  0.1235 -0.1112
 3339W        W13599  11.754  11.199   2.574  0.1295 -0.2511 -0.1468
 3340W        W13600   4.863   3.860   0.513 -0.1085 -0.4926 -0.5019
 3341W        W13601   4.613   8.471   0.670 -0.3144 -0.2266 -0.0834
 3342W        W13602   8.446  13.185   6.882 -0.0592 -0.1899  0.1427
 3343W        W13603   9.727  10.714   1.556  0.0268 -0.0542 -0.4012
 3344W        W13604  12.907   5.696   6.367 -0.1626 -0.1800 -0.1474
 3345W        W13605   4.733   7.073   6.407 -0.3380  0.0825 -0.2454
 3346W        W13606  13.804   6.656   2.090  0.2355 -0.0760 -0.3868
 3347W        W13607   9.414   2.980   1.986 -0.0693  0.0240  0.2005
 3348W        W13608   3.372   4.725   0.073  0.1978  0.1385  0.3380
 3349W        W13609   6.791   4.525   7.824 -0.3429  0.1480  0.1538
 3350W        W13610  11.016  10.613   8.246 -0.2293 -0.0603  0.0803
 3351W        W13611   5.412  11.201   5.893  0.2859 -0.0004  0.0029
 3352W        W13612   4.157   6.758   7.185 -0.1693  0.0106  0.1471
 3353W        W13613   7.514  14.887   7.238  0.0045  0.1714  0.2039
 3354W        W13614   4.815   9.214   0.015 -0.1318  0.0432  0.0841
 3355W        W13615  13.719   4.759   2.656 -0.2047  0.0580  0.3110
 3356W        W13616   8.337   1.651   1.491  0.0001 -0.4450 -0.2040
 3357W        W13617  12.799  16.528   7.108 -0.0503  0.0902  0.2512
 3358W        W13618   9.689   8.061   7.071 -0.0326  0.1290  0.0399
 3359W        W13619  10.721   6.419   8.397  0.2325  0.2717  0.0807
 3360W        W13620   4.824  12.833   1.437  0.0841  0.1490 -0.1369
 3361W        W13621   2.244  16.362   7.986  0.1500 -0.4797 -0.3793
 3362W        W13622   1.449  10.490   6.594 -0.2590  0.0070 -0.2666
 3363W        W13623   5.054   6.533   0.511 -0.1163 -0.2244 -0.1974
 3364W        W13624   6.185   9.244   0.170 -0.2473 -0.0043 -0.0139
 3365W        W13625   9.152   2.491   7.806  0.1600 -0.0416  0.1380
 3366W        W13626  12.663   8.781   6.877 -0.2909 -0.0004  0.0398
 3367W        W13627   4.875   5.693   0.780  0.1706 -0.4170  0.2492
 3368W        W13628   4.871  11.246   7.429 -0.1487 -0.1159 -0.0017
 3369W        W13629   8.350  15.573   1.007  0.0166  0.3288  0.2664
 3370W        W13630   2.713   2.317   7.726 -0.0872 -0.0512 -0.2777
 3371W        W13631  12.120   6.135   0.512  0.3284  0.0619 -0.0724
 3372W        W13632   5.433   8.545   0.326 -0.1920 -0.0526  0.1340
 3373W        W13633   4.335  11.457   8.194  0.3406 -0.1584 -0.0337
 3374W        W13634   7.322   3.926   0.521  0.0189  0.0269 -0.1390
 3375W        W13635   9.176   9.910   8.403 -0.0983 -0.1736  0.4161
 3376W        W13636  12.676   3.108   6.149  0.2459  0.3404  0.0584
 3377W        W13637   5.331   6.320   6.213 -0.0057  0.4059 -0.0738
 3378W        W13638  13.357   7.961   7.612 -0.0787  0.0381  0.3574
 3379W        W13639  11.653   4.792   8.483 -0.2016 -0.1533  0.1563
 3380W        W13640   8.241   8.975   0.398  0.0329 -0.1357  0.0118
 3381W        W13641  10.227   9.793   6.158 -0.1917  0.2327  0.1333
 3382W        W13642   6.411   6.779   8.035 -0.1040  0.0187  0.0418
 3383W        W13643   9.708   8.732   7.694  0.1137 -0.0906  0.1100
 3384W        W13644  12.613   0.282   2.139 -0.0896  0.0889 -0.2553
 3385W        W13645  13.141   5.155   0.296  0.0954  0.1605  0.1655
 3386W        W13646   9.328   6.243   7.287  0.0014  0.2793  0.1115
 3387W        W13647   9.329   9.953   0.183  0.0104  0.0546  0.0828
 3388W        W13648   8.927   9.262   0.958 -0.1491  0.1874  0.1423
 3389W        W13649   3.026   9.225   7.971 -0.1974  0.0181 -0.0662
 3390W        W13650   9.372   6.995   1.190 -0.0307 -0.1544 -0.1785
 3391W        W13651   9.248  12.519   1.980 -0.2953 -0.1530  0.3124
 3392W        W13652   4.576   2.460   7.166 -0.2758 -0.0705 -0.0611
 3393W        W13653   7.478   3.757   7.032  0.3715  0.1793  0.0647
 3394W        W13654   8.546   6.932   1.281 -0.0592 -0.0427  0.3055
 3395W        W13655   3.961  10.962   7.833 -0.2827 -0.1388  0.1485
 3396W        W13656   7.074   5.298   0.637 -0.0614 -0.0203 -0.2766
 3397W        W13657   3.971   3.553   0.288 -0.1761  0.2795  0.1864
 3398W        W13658   8.869   6.304   6.117  0.0898  0.0302 -0.1708
 3399W        W13659  11.384   5.019   2.880 -0.2568 -0.1929 -0.4340
 3400W        W13660  10.550  10.732   0.969  0.1788 -0.0398  0.0415
 3401W        W13661   6.365  16.007   1.465  0.1627 -0.0989 -0.3717
 3402W        W13662  10.291  10.331   0.046  0.1693  0.0304 -0.1088
 3403W        W13663   8.527   4.636   8.054  0.2182 -0.0380 -0.4049
 3404W        W13664  15.647   5.540   0.607 -0.4914  0.1290  0.4069
 3405W        W13665   6.486   8.874   1.539  0.0823 -0.1551 -0.3774
 3406W        W13666   6.468   5.380   8.523 -0.4500 -0.1539  0.0343
 3407W        W13667  14.034   4.384   8.114 -0.1631 -0.0206 -0.0318
 3408W        W13668   6.514   4.940   6.989  0.0537 -0.1833  0.0340
 3409W        W13669   8.870  10.691   1.916  0.1305 -0.3130 -0.0125
 3410W        W13670  10.644   3.024   7.473 -0.1674 -0.1036  0.0923
 3411W        W13671   8.813   2.626   8.133  0.3935 -0.2004 -0.0758
 3412W        W13672   3.674   3.438   7.523  0.1010  0.1032 -0.1010
 3413W        W13673   7.305   8.919   1.503  0.3492 -0.3078 -0.0550
 3414W        W13674   8.830   6.711   6.371 -0.1405  0.0319 -0.1822
 3415W        W13675   7.393  10.212   7.901  0.0456  0.2374 -0.1743
 3416W        W13676  15.283   7.146   1.235 -0.3030 -0.2402 -0.0139
 3417W        W13677  11.050  13.839   7.727 -0.0987 -0.1740  0.0026
 3418W        W13678   7.010   5.747   8.242  0.1739  0.1382 -0.3046
 3419W        W13679   4.746   9.175   1.512 -0.2620 -0.2762 -0.1697
 3420W        W13680   5.336   9.325   8.599  0.2310 -0.2555 -0.1183
 3421W        W13681   7.065   9.988   0.399  0.0096  0.1222  0.2761
 3422W        W13682   8.708   9.674   1.212  0.2571 -0.0750 -0.0814
 3423W        W13683   7.046  12.862   7.395 -0.3649  0.1049  0.0739
 3424W        W13684  10.139   9.028   6.829  0.0301 -0.0423 -0.0231
 3425W        W13685  11.237   9.387   1.588 -0.0875 -0.0277 -0.1656
 3426W        W13686   0.918   6.980   7.728 -0.2507 -0.2175  0.0788
 3427W        W13687   5.894  12.495   1.679 -0.0945 -0.2997  0.1603
 3428W        W13688   9.041  11.358   7.275 -0.1397  0.2922 -0.0350
 3429W        W13689   9.617   9.205   0.209  0.1486  0.2033  0.4474
 3430W        W13690   7.612  10.954   7.195  0.1754 -0.2950 -0.1095
 3431W        W13691   6.618   7.158   1.318 -0.1477  0.1825  0.0714
 3432W        W13692  10.209  10.741   8.388  0.1849  0.2896 -0.2395
 3433W        W13693  13.887   7.119   1.251 -0.0571  0.3113 -0.1446
 3434W        W13694   7.936   3.395   6.975  0.0729  0.0775  0.1638
 3435W        W13695   6.053  12.231   6.408 -0.2526  0.0694 -0.0644
 3436W        W13696   9.431   8.544   1.990  0.1076 -0.0271  0.0630
 3437W        W13697   5.578   7.675   1.421 -0.0571  0.0036  0.2240
 3438W        W13698  11.573  10.025   6.282 -0.1004  0.1842  0.3546
 3439W        W13699  12.609   7.859   7.789  0.1979 -0.2395 -0.0775
 3440W        W13700   6.966  16.048   6.672 -0.1662  0.2149 -0.1710
 3441W        W13701   2.379  12.784   1.507  0.2269  0.0741  0.2173
 3442W        W13702   8.626   8.620   8.063  0.4541 -0.1276 -0.1090
 3443W        W13703  10.758  15.630   0.777  0.1215  0.2020  0.0492
 3444W        W13704   9.129   2.528   2.502 -0.2219 -0.2079 -0.1093
 3445W        W13705  12.150   7.242   2.069  0.0427  0.1433  0.0849
 3446W        W13706  15.039  13.325   0.417 -0.1262  0.1852  0.0113
 3447W        W13707  11.333  12.031   0.180 -0.2101  0.0026 -0.2491
 3448W        W13708  10.231   5.853   7.003  0.1969 -0.0198  0.1152
 3449W        W13709   5.916  10.534   8.499 -0.2446  0.5188  0.2002
 3450W        W13710  11.614  12.834   8.500  0.4106 -0.0307 -0.0181
 3451W        W13711  10.606  12.093   0.019  0.0769  0.1288 -0.2649
 3452W        W13712  10.193  14.897   7.087 -0.2421  0.1855  0.2397
 3453W        W13713   8.586   9.969   7.790  0.1668 -0.1113 -0.1339
 3454W        W13714   7.332  10.407   0.605  0.2534  0.0792 -0.1171
 3455W        W13715  10.198   9.518   0.662 -0.0731 -0.1445 -0.0942
 3456W        W13716   8.151   7.382   7.472 -0.0204  0.2131 -0.1233
 3457W        W13717   7.642   9.592   7.650  0.0788  0.1219 -0.1349
 3458W        W13718   5.190   3.890   8.265  0.2529  0.1720  0.1520
 3459W        W13719   5.575   6.972   0.741  0.0974 -0.0494  0.0516
 3460W        W13720  13.209  15.526   8.121  0.0254 -0.2203  0.1533
 3461W        W13721   9.166   8.929   0.131  0.3241 -0.0686 -0.1635
 3462W        W13722  13.740   8.725   6.175  0.1996  0.0120 -0.1083
 3463W        W13723   8.965   9.550   7.054  0.0138  0.2780 -0.1570
 3464W        W13724   7.635   7.174   1.270 -0.3018 -0.2927  0.2857
 3465W        W13725   9.859   7.446   0.306 -0.0223  0.3806 -0.0768
 3466W        W13726  10.857   6.777   0.600 -0.2925  0.1826  0.1349
 3467W        W13727  10.084  13.292   6.848 -0.1157  0.2833  0.0328
 3468W        W13728  14.036  12.743   2.217 -0.1828 -0.0474 -0.1329
 3469W        W13729   5.266   9.652   1.864 -0.0110 -0.1353  0.1660
 3470W        W13730  10.215  13.634   0.856 -0.0352 -0.0899 -0.1170
 3471W        W13731   1.981   7.205   0.341 -0.0507 -0.2952 -0.0254
 3472W        W13732  12.324  11.350   7.117  0.1135  0.1192  0.1459
 3473W        W13733  11.631   6.251   7.689  0.0182 -0.0989  0.0653
 3474W        W13734   8.391   7.558   7.004 -0.0430 -0.1350 -0.0884
 3475W        W13735   6.134  12.607   2.143 -0.0337  0.2771  0.3278
 3476W        W13736   5.152  12.327   8.051 -0.0710 -0.1767  0.1266
 3477W        W13737   6.396   9.930   1.269 -0.1168  0.0430 -0.4567
 3478W        W13738  13.323   3.021   8.590 -0.1238 -0.2436 -0.0531
 3479W        W13739   5.109   5.228   7.627  0.0098  0.1304 -0.1083
 3480W        W13740  10.786  11.356   8.402  0.0707  0.0585  0.0104
 3481W        W13741   9.091   5.419   8.525 -0.1823 -0.0635 -0.0540
 3482W        W13742   8.057   6.480   7.765 -0.0816 -0.1291  0.1479
 3483W        W13743  12.428   4.793   1.758  0.2597  0.1701  0.1535
 3484W        W13744   8.338  10.762   2.101 -0.1594 -0.1019  0.0899
 3485W        W13745  16.348   9.942   7.395  0.3530  0.0748 -0.0906
 3486W        W13746   6.430   6.921   8.552 -0.0447 -0.1586 -0.0730
 3487W        W13747   7.434  12.425   1.788  0.3174 -0.0748  0.0720
 3488W        W13748   7.827  11.215   8.001  0.2394 -0.0048 -0.0624
 3489W        W13749   6.668   5.398   6.784 -0.1127  0.3041  0.0011
 3490W        W13750   8.698   6.620   7.322 -0.2923 -0.1117  0.1151
 3491W        W13751   8.661   9.572   1.694  0.2736  0.0623  0.3478
 3492W        W13752  16.391  13.263   1.362  0.3142 -0.1042 -0.0315
 3493W        W13753  12.802   6.122   7.740 -0.1138  0.0980  0.2404
 3494W        W13754   1.953   2.070   7.697  0.0333  0.1532 -0.2770
 3495W        W13755   6.018   5.673   7.768 -0.2406 -0.0131  0.2252
 3496W        W13756  11.043  10.181   6.711  0.1171 -0.3427  0.1589
 3497W        W13757   6.660   9.328   0.050 -0.1105  0.1505 -0.0611
 3498W        W13758  12.418   6.204   0.115 -0.3169  0.1042  0.1090
 3499W        W13759   8.620  13.239   7.937 -0.1749 -0.0853 -0.2163
 3500W        W13760   5.420   7.313   8.405  0.4695  0.0659 -0.2948
 3501W        W13761   4.668  16.116   1.407 -0.0886  0.1063 -0.0095
 3502W        W13762   3.584   1.205   7.221 -0.2773  0.0272 -0.0114
 3503W        W13763   8.763   9.202   0.393 -0.0770  0.2606 -0.1103
 3504W        W13764   6.837  11.843   1.043 -0.2059  0.0741  0.0431
 3505W        W13765  12.568  10.053   1.594  0.0525  0.2910 -0.1207
 3506W        W13766   8.964  11.381   8.615 -0.1577 -0.0321  0.1764
 3507W        W13767   7.337   9.118   2.042  0.1613  0.3485 -0.1008
 3508W        W13768   8.066   9.695   7.155  0.2028 -0.1144 -0.3083
 3509W        W13769   8.944   7.255   1.113  0.2062 -0.1245 -0.1975
 3510W        W13770  13.562   3.441   0.102 -0.1057 -0.0865 -0.1464
 3511W        W13771   4.385   5.402   0.451  0.0782  0.3347 -0.1584
 3512W        W13772   6.966   1.111   8.146  0.0794  0.1021 -0.2080
 3513W        W13773   8.211   9.585   1.312  0.0421  0.0036  0.0043
 3514W        W13774  14.514  10.630   6.746 -0.1008 -0.2387  0.0529
 3515W        W13775  15.186  12.285   7.745  0.1971 -0.1144  0.0836
 3516W        W13776   9.312   6.456   0.893 -0.0063 -0.1349 -0.0931
 3517W        W13777  12.092   9.320   7.989  0.0737 -0.1779 -0.2802
 3518W        W13778  13.197  15.273   0.692  0.0952 -0.0186 -0.0492
 3519W        W13779   7.630   9.253   1.675 -0.1481 -0.0092  0.0178
 3520W        W13780   6.519   7.733   7.389  0.0673 -0.0434 -0.0523
 3521W        W13781   6.816   0.751   7.753  0.5284  0.1388 -0.1510
 3522W        W13782  16.020   7.567   8.253  0.0477 -0.3643  0.0851
 3523W        W13783  13.376   9.671   7.007 -0.0509  0.2661  0.0096
 3524W        W13784  15.203   7.853   6.922 -0.1463  0.1865  0.1320
 3525W        W13785   3.155   6.381   1.261 -0.2511  0.0632 -0.0955
 3526W        W13786  12.706  12.630   0.458  0.0640 -0.0978 -0.1627
 3527W        W13787   7.407   9.294   0.081 -0.1938 -0.2267  0.2707
 3528W        W13788  14.421  10.120   0.222 -0.0636 -0.1083 -0.0701
 3529W        W13789  10.918  11.027   7.069 -0.0311  0.1018 -0.0344
 3530W        W13790  16.185   3.729   1.817  0.0017  0.0767  0.0011
 3531W        W13791  13.853  10.710   1.170  0.5380 -0.0925  0.1125
 3532W        W13792   7.483   9.693   0.450  0.0326 -0.1129  0.2716
 3533W        W13793  11.297  12.676   7.088  0.0133 -0.2170  0.2239
 3534W        W13794  11.097   9.214   7.459 -0.0994 -0.1840 -0.2160
 3535W        W13795  12.098  12.534   6.847 -0.1479 -0.2231  0.2671
 3536W        W13796  15.918  11.812   1.711  0.0855 -0.2714 -0.0102
 3537W        W13797   1.155   9.740   1.857 -0.3606 -0.1902  0.0442
 3538W        W13798  10.404   8.419   7.072  0.0165 -0.1261  0.0849
 3539W        W13799   9.969   8.229   7.457 -0.0278 -0.0659 -0.2533
 3540W        W13800  15.031   1.985   7.804 -0.0207  0.2779 -0.0653
 3541W        W13801  10.206   7.920   0.201  0.2988 -0.0514 -0.0692
 3542W        W13802  13.841   2.253   0.965 -0.3426  0.0192 -0.0124
 3543W        W13803  13.519   7.658   7.194  0.5215  0.2619 -0.2184
 3544W        W13804  12.687  15.297   8.114 -0.0795 -0.0608 -0.0785
 3545W        W13805  11.298  13.193   2.012  0.0734 -0.1415  0.4346
 3546W        W13806  10.489   9.723   1.920 -0.2520  0.0983 -0.1184
 3547W        W13807  12.645   6.983   0.780 -0.0594 -0.0498 -0.1558
 3548W        W13808   4.679   4.873   1.419 -0.1891  0.0978 -0.1791
 3549W        W13809  10.045   7.652   2.157 -0.2108  0.0874  0.1511
 3550W        W13810  13.718  11.084   7.241  0.2149  0.0131  0.2516
 3551W        W13811   6.585   8.234   1.092  0.0692  0.0501  0.1418
 3552W        W13812   1.518  10.074   1.718  0.2405  0.2575 -0.0215
 3553W        W13813   9.305   8.899   7.351 -0.1625 -0.1927  0.0471
 3554W        W13814  10.272   8.388   1.179 -0.2062  0.1975  0.2939
 3555W        W13815   7.076   0.112   7.789 -0.0525  0.0406 -0.1815
 3556W        W13816  10.479   9.176   8.582  0.1577  0.2471  0.0424
 3557W        W13817  12.794  15.831   6.399 -0.1022  0.1016 -0.2436
 3558W        W13818  10.093   1.044   1.902 -0.1533 -0.0611  0.0468
 3559W        W13819   8.682  11.281   1.056  0.2467  0.1730  0.0564
 3560W        W13820   9.748   1.155   2.226 -0.1615  0.1150  0.0283
 3561W        W13821   7.011   9.323   7.003  0.1390  0.2348 -0.1972
 3562W        W13822   9.850  13.726   8.395  0.2580 -0.0019 -0.1906
 3563W        W13823  12.077  11.135   7.948  0.0938  0.3042 -0.2347
 3564W        W13824  16.334  11.497   7.494  0.2534 -0.0975 -0.0670
 3565W        W13825  10.734   4.881   0.802 -0.1795 -0.0229 -0.0602
 3566W        W13826  14.223   9.473   1.970  0.1158 -0.1075  0.1018
 3567W        W13827   3.761  11.303   7.478 -0.2529  0.1742  0.0536
 3568W        W13828  13.284   4.684   0.809  0.1913 -0.0359 -0.0045
 3569W        W13829  11.518   0.469   1.429 -0.1049  0.0898  0.1605
 3570W        W13830   8.332   8.968   7.021  0.3145  0.1645 -0.2135
 3571W        W13831   3.423   7.109   0.211 -0.2776 -0.2578 -0.2181
 3572W        W13832  15.959   7.623   0.125 -0.0745 -0.2394 -0.2171
 3573W        W13833  11.330   3.913   8.303 -0.3905  0.1013  0.0622
 3574W        W13834  13.153   6.952   6.778 -0.0235 -0.1246  0.0698
 3575W        W13835  10.749  10.963   7.998 -0.1118  0.0105  0.1398
 3576W        W13836  15.667   9.440   0.886  0.1210  0.2355  0.2258
 3577W        W13837   9.268   0.188   8.232  0.2626 -0.0263 -0.1584
 3578W        W13838  11.458  11.627   7.549  0.0432 -0.2393 -0.1371
 3579W        W13839   6.126   8.984   0.665 -0.1414 -0.1017 -0.1669
 3580W        W13840  14.224  12.244   8.328 -0.0856 -0.0614 -0.1549
 3581W        W13841   3.269   6.672   0.845 -0.1425  0.0328  0.2285
 3582W        W13842  10.394   8.903   7.937 -0.3049 -0.1751  0.3115
 3583W        W13843   0.500  13.236   2.765 -0.0529  0.1929 -0.4511
 3584W        W13844  11.534   6.669   1.194  0.0404 -0.0570 -0.1601
 3585W        W13845  10.729  10.326   0.498 -0.0104 -0.1861  0.0069
 3586W        W13846  16.286   5.166   0.276 -0.2876 -0.1147  0.3532
 3587W        W13847  12.051  10.357   0.441  0.0299 -0.0753  0.2156
 3588W        W13848  11.270   9.688   7.215  0.0775  0.0767 -0.1394
 3589W        W13849   9.692  10.822   1.020  0.0999 -0.0034  0.1686
 3590W        W13850  14.929  13.250   7.059  0.0567 -0.0119 -0.4540
 3591W        W13851   7.953   0.420   0.327 -0.0061 -0.2613 -0.0473
 3592W        W13852  16.280   7.514   0.741  0.3539 -0.0986  0.1648
 3593W        W13853  12.178   8.566   7.827  0.2423 -0.2927  0.1979
 3594W        W13854  11.959   6.657   7.568 -0.2224 -0.0075  0.1194
 3595W        W13855   0.984   2.616   8.054 -0.2344  0.2901  0.0183
 3596W        W13856  14.713   4.672   7.943 -0.1193 -0.4202  0.1656
 3597W        W13857  11.046   6.249   0.398 -0.0813  0.0043  0.2583
 3598W        W13858  16.345   2.932   8.266  0.2186  0.2163 -0.1677
 3599W        W13859  12.831   7.091   7.515 -0.0964  0.1520 -0.0302
 3600W        W13860   9.415   4.044   0.279 -0.0499  0.2061  0.0149
 3601W        W13861  16.568   3.414   0.864 -0.0296 -0.0751 -0.2164
 3602W        W13862   9.567   7.026   6.632  0.0004  0.2800  0.1871
 3603W        W13863  13.043  12.671   6.816  0.1932 -0.0128  0.0006
 3604W        W13864   2.274   7.240   7.711 -0.1871 -0.0329  0.1314
 3605W        W13865  16.190  12.603   8.604 -0.0831 -0.0794  0.0033
 3606W        W13866  14.988  13.721   7.140  0.1642  0.1331 -0.0919
 3607W        W13867  15.629   7.869   7.328  0.3444 -0.0522  0.3765
 3608W        W13868   9.993   7.300   6.712  0.4168  0.2935 -0.3312
 3609W        W13869  16.319  16.520   6.633 -0.2046 -0.2196  0.1633
 3610W        W13870  11.741  10.018   1.447 -0.1612  0.0231  0.0316
 3611W        W13871  10.528   8.085   8.464 -0.1374  0.3656  0.0927
 3612W        W13872  11.263   9.751   8.325  0.0101  0.1568 -0.1513
 3613W        W13873  13.296   6.452   1.114  0.0215 -0.0005 -0.0319
 3614W        W13874  12.330  10.923   0.347 -0.1441  0.3990  0.0913
 3615W        W13875  12.364   6.119   1.511  0.3097  0.5526 -0.1363
 3616W        W13876  15.464   6.252   2.174 -0.1521  0.1207 -0.3802
 3617W        W13877  11.420   6.754   7.776  0.2324 -0.1742  0.1279
 3618W        W13878  12.028   9.183   0.354 -0.1885  0.1192  0.2252
 3619W        W13879   9.575   7.243   7.630  0.0499 -0.3393 -0.1727
 3620W        W13880  13.983   7.706   6.624  0.0297 -0.5797  0.3547
 3621W        W13881  11.094  11.112   0.105  0.1638  0.2495  0.0588
 3622W        W13882  16.318   5.883   8.349 -0.2778 -0.1415  0.1242
 3623W        W13883  11.721   3.418   2.556 -0.0945 -0.0807 -0.1883
 3624W        W13884   8.998   9.523   6.582 -0.1949  0.0993 -0.0268
 3625W        W13885   8.658   1.284   8.677  0.1708 -0.0752 -0.0562
 3626W        W13886  13.358   8.205   0.670  0.0914 -0.0170  0.1014
 3627W        W13887   7.426   5.836   2.234  0.3559  0.3589  0.1356
 3628W        W13888  12.863   2.176   1.124 -0.3817  0.2248 -0.2808
 3629W        W13889   7.319   6.530   1.085 -0.0298 -0.1891 -0.1652
 3630W        W13890   0.604   5.100   8.187  0.0056  0.2180 -0.1738
 3631W        W13891  12.666   5.584   0.856 -0.2913 -0.1981  0.1456
 3632W        W13892   5.683   4.373   0.839 -0.0662 -0.1102  0.2694
 3633W        W13893  14.451   4.144   7.895 -0.1594 -0.0430 -0.0755
 3634W        W13894  12.216   8.633   6.935  0.0726 -0.0853  0.2971
 3635W        W13895   0.087  11.876   7.710  0.0513  0.0553  0.0115
 3636W        W13896  15.266  12.765   0.321 -0.0231  0.1885 -0.2136
 3637W        W13897   9.991   6.444   8.051 -0.1479  0.3087  0.1508
 3638W        W13898  13.091   8.130   0.225  0.1364  0.4283  0.0761
 3639W        W13899  12.958  12.981   7.756 -0.0207  0.0011 -0.0051
 3640W        W13900  13.483   2.569   2.656 -0.0716 -0.1658  0.0924
 3641W        W13901  16.171   4.455   0.042  0.1238 -0.2204  0.0761
 3642W        W13902  14.444  12.108   0.159 -0.1059  0.0969 -0.0289
 3643W        W13903  14.851   7.989   6.553  0.0036 -0.0313 -0.2321
 3644W        W13904  12.470   2.887   7.224  0.3668  0.2711 -0.1105
 3645W        W13905  15.882   9.368   7.051 -0.0857  0.1489  0.2456
 3646W        W13906   2.802   3.995   1.913  0.0678 -0.0257 -0.0664
 3647W        W13907  13.406   9.215   1.203  0.1686 -0.1555  0.1806
 3648W        W13908  10.981  10.603   7.683  0.0660 -0.1728  0.0209
 3649W        W13909   1.125   8.558   7.274 -0.3831 -0.4176  0.0874
 3650W        W13910   8.367   4.095   7.307 -0.1491 -0.0726 -0.4797
 3651W        W13911   0.097  13.310   7.812  0.1904  0.1963 -0.1858
 3652W        W13912  14.728   7.242   6.017  0.1870 -0.0043  0.2831
 3653W        W13913  13.293   4.551   2.676  0.0288 -0.1329  0.1044
 3654W        W13914  12.226   4.469   7.063 -0.2564  0.2117 -0.1340
 3655W        W13915  10.496   6.956   2.503  0.1850  0.1293 -0.1237
 3656W        W13916   3.257  15.784   2.359 -0.3431 -0.0880  0.2395
 3657W        W13917  14.194  10.015   7.440  0.0946 -0.1869  0.1931
 3658W        W13918  10.559   7.095   8.373 -0.2153  0.0829 -0.1969
 3659W        W13919  11.466   8.804   7.375 -0.1093  0.0250  0.0437
 3660W        W13920   9.676   5.714   7.361  0.2959  0.3937 -0.1420
 3661W        W13921  11.431   5.190   0.129 -0.0223  0.0082  0.2308
 3662W        W13922   9.840   3.960   7.090 -0.1578 -0.2484 -0.0179
 3663W        W13923  12.735   7.530   1.747 -0.2508  0.1466  0.1648
 3664W        W13924   7.243   0.585   7.847  0.1448 -0.3160 -0.0557
 3665W        W13925  13.608   9.069   0.124 -0.2350 -0.2007  0.1080
 3666W        W13926  12.417  12.353   8.307  0.0128  0.1381 -0.1673
 3667W        W13927  12.577  10.746   1.076  0.3614  0.0755  0.0623
 3668W        W13928  16.110   7.188   8.636 -0.1623 -0.0281  0.0570
 3669W        W13929  12.005   9.907   2.046 -0.0734 -0.0483 -0.2460
 3670W        W13930  15.360   5.709   1.258 -0.1162 -0.0775  0.1360
 3671W        W13931  11.339   6.406   0.800 -0.0037 -0.0523  0.0604
 3672W        W13932  11.891   8.412   1.813 -0.1109  0.0263 -0.1906
 3673W        W13933   7.715   9.711   1.455  0.0307 -0.2005 -0.2682
 3674W        W13934  11.279  11.505   1.017 -0.0267 -0.1749 -0.1710
 3675W        W13935  14.896   2.751   7.045  0.0845  0.0610 -0.1716
 3676W        W13936  13.271   8.879   7.612 -0.0141 -0.1882  0.1572
 3677W        W13937  10.546   7.030   6.893  0.0454 -0.0430  0.0528
 3678W        W13938  12.758   4.788   0.466 -0.0959  0.3006 -0.1822
 3679W        W13939   2.301   4.252   7.460  0.2333  0.0419 -0.2310
 3680W        W13940  10.742   5.206   1.181 -0.0769  0.0901  0.0822
 3681W        W13941  11.441   9.220   7.092 -0.1064 -0.2836 -0.1991
 3682W        W13942   8.510  10.844   7.411 -0.1999 -0.0261 -0.2306
 3683W        W13943  13.877   4.052   7.125 -0.0488  0.2439 -0.1954
 3684W        W13944   9.502  12.192   7.077 -0.2339  0.2745  0.2225
 3685W        W13945  11.156   5.934   7.813  0.0470 -0.2075 -0.0622
 3686W        W13946   8.187   4.657   2.152  0.2392 -0.0432 -0.5067
 3687W        W13947   0.648   9.590   7.243 -0.2016 -0.2133 -0.4294
 3688W        W13948  10.776   9.650   5.967  0.0661 -0.1135 -0.1494
 3689W        W13949   1.364   9.031   7.195  0.1152 -0.2002 -0.0381
 3690W        W13950   0.233   7.271   0.129 -0.0693  0.1061  0.1538
 3691W        W13951   4.100   5.825   0.667 -0.1030 -0.1595 -0.0481
 3692W        W13952   1.547   4.065   8.222  0.2405  0.0189  0.1278
 3693W        W13953   8.378   5.700   7.870 -0.0195  0.2512 -0.0263
 3694W        W13954   6.793   6.452   2.049  0.3584  0.0133 -0.1441
 3695W        W13955  10.689  14.701   7.091  0.1128  0.0751 -0.1002
 3696W        W13956  14.389  11.734   2.137  0.1764  0.0335  0.1198
 3697W        W13957  16.180   6.813   1.501 -0.2242 -0.1544  0.0639
 3698W        W13958   7.265   6.617   0.494  0.0886  0.3373  0.4315
 3699W        W13959  13.522   5.122   7.899 -0.0882 -0.0193 -0.1690
 3700W        W13960   9.796   6.050   8.250  0.1417  0.2811 -0.3513
 3701W        W13961  14.103  11.976   6.043  0.0827  0.0197  0.2016
 3702W        W13962  15.006   9.537   0.321 -0.0058 -0.0364 -0.3340
 3703W        W13963  11.678  13.336   1.680 -0.1153 -0.2760 -0.1824
 3704W        W13964  10.812  12.363   0.888  0.1912 -0.1959 -0.0675
 3705W        W13965   9.998   7.180   7.358 -0.3707 -0.0218  0.1906
 3706W        W13966  14.532  10.757   6.242 -0.3692  0.1513  0.0253
 3707W        W13967   6.685  11.216   7.141 -0.1925  0.1058  0.1103
 3708W        W13968  11.160   7.119   8.077  0.0443  0.0360  0.3417
 3709W        W13969  14.956  10.806   8.435  0.1205 -0.0760 -0.2386
 3710W        W13970  10.028  11.934   0.633  0.1712 -0.1047 -0.1054
 3711W        W13971   9.372   9.112   0.666 -0.3842 -0.1305 -0.4082
 3712W        W13972  14.383  11.103   0.605  0.0334  0.0642  0.0841
 3713W        W13973  11.381   7.146   1.874 -0.1646  0.1514 -0.0950
 3714W        W13974  14.659   3.974   1.406  0.0490 -0.0134 -0.2449
 3715W        W13975  14.595   7.867   2.240 -0.1978  0.1698 -0.2187
 3716W        W13976  12.485   8.185   6.941  0.0744 -0.1984  0.1411
 3717W        W13977  13.250   2.483   8.427  0.0138 -0.1353  0.2036
 3718W        W13978  11.754   0.003   6.619  0.1147 -0.0771  0.1061
 3719W        W13979  12.377  16.162   8.055 -0.2179  0.2990  0.0193
 3720W        W13980   6.997   7.435   1.551 -0.1132  0.1833 -0.0284
 3721W        W13981  12.424  15.112   0.399  0.0384 -0.1005 -0.3955
 3722W        W13982   0.428   9.587   2.419  0.0238  0.0182  0.0038
 3723W        W13983  14.158   6.287   0.357 -0.0902 -0.0465 -0.0384
 3724W        W13984   1.410   0.796   0.778  0.0943 -0.0960 -0.1497
 3725W        W13985  14.918   7.523   8.336 -0.2266  0.2450  0.1230
 3726W        W13986   1.911  12.789   0.750 -0.3374  0.1116 -0.0342
 3727W        W13987   6.731   5.659   1.038  0.1546 -0.1615 -0.1857
 3728W        W13988   0.873   4.779   0.825  0.1258  0.2652 -0.1049
 3729W        W13989   9.745   0.939   0.807  0.0443  0.0122 -0.0857
 3730W        W13990  13.419   7.378   0.096 -0.2524  0.0943 -0.1303
 3731W        W13991  16.374   4.884   8.481 -0.0333  0.0223 -0.1156
 3732W        W13992   3.350   4.850   7.000 -0.0882 -0.0989 -0.1059
 3733W        W13993  15.643  12.342   7.067 -0.0961  0.0552  0.1558
 3734W        W13994   2.402   9.059   6.864 -0.0798 -0.1501 -0.2093
 3735W        W13995  12.128   3.364   8.566  0.1113  0.1726 -0.0378
 3736W        W13996   4.697   7.801   1.909 -0.0927  0.2933  0.0643
 3737W        W13997   0.838  14.987   7.830  0.3111  0.2019 -0.5417
 3738W        W13998  13.670   7.947   7.948 -0.2171  0.0163 -0.2045
 3739W        W13999   1.357  11.443   7.467  0.3244 -0.1132  0.0681
 3740W        W14000   1.889   7.746   6.946 -0.4349  0.1557 -0.0577
 3741W        W14001   2.311  11.153   1.253 -0.2189 -0.1794  0.2602
 3742W        W14002  14.414  13.106   6.881  0.0627  0.3303 -0.0713
 3743W        W14003  10.248   9.998   0.524 -0.2507  0.3098  0.1315
 3744W        W14004   1.986  12.465   0.377 -0.1654  0.0820 -0.1110
 3745W        W14005  12.274   3.128   6.520 -0.0972  0.0323 -0.3069
 3746W        W14006  12.898  15.534   6.880  0.3347 -0.2113 -0.0679
 3747W        W14007   8.797   6.310   8.197 -0.0715 -0.2122 -0.1534
 3748W        W14008   2.309   7.633   1.267 -0.0792 -0.0935  0.4022
 3749W        W14009  13.414   9.175   0.610  0.1767 -0.1119 -0.0515
 3750W        W14010  12.706  10.222   2.515 -0.0718 -0.2250  0.1315
 3751W        W14011  14.660   7.933   1.351  0.1868  0.1028 -0.0931
 3752W        W14012   9.592  13.115   7.780 -0.1978  0.3430 -0.0552
 3753W        W14013  16.536   7.132   7.183  0.3690 -0.0125  0.1054
 3754W        W14014  12.245  12.438   1.333 -0.1800  0.1504  0.2870
 3755W        W14015  16.305   9.409   7.477 -0.0642 -0.0555  0.3046
 3756W        W14016   0.287   7.481   7.711 -0.2213  0.1391  0.2947
 3757W        W14017  16.377   5.096   7.966  0.1255 -0.2305  0.2439
 3758W        W14018   2.142  11.560   7.071  0.7007  0.2815  0.2174
 3759W        W14019  13.410   5.666   7.908  0.0948  0.0500  0.1182
 3760W        W14020  16.245   0.326   2.007  0.0387  0.0950 -0.0619
 3761W        W14021  14.013   4.967   6.834  0.0360 -0.2896 -0.3674
 3762W        W14022  13.030  15.331   1.171  0.2767 -0.2668  0.1896
 3763W        W14023   0.449   7.048   7.919 -0.0826 -0.0329 -0.1506
 3764W        W14024  14.463   5.085   8.624  0.3652 -0.0030  0.3448
 3765W        W14025  10.797   7.636   7.484 -0.4107  0.0339 -0.4313
 3766W        W14026  15.433   9.545   1.334  0.1905 -0.0702 -0.1052
 3767W        W14027   8.509   5.135   7.358 -0.2276  0.1288 -0.1690
 3768W        W14028   3.133   8.490   8.438  0.1968 -0.0180 -0.0007
 3769W        W14029  13.409  11.891   0.006  0.1263 -0.1399  0.1129
 3770W        W14030   6.199   5.873   0.170 -0.0114  0.0181 -0.0280
 3771W        W14031   7.995   4.432   7.124  0.2852 -0.2147  0.1701
 3772W        W14032   4.557   9.096   6.628 -0.1150  0.2208 -0.1873
 3773W        W14033  12.838  13.604   1.133 -0.1320  0.3191  0.2139
 3774W        W14034  10.809   8.503   8.465 -0.1314  0.1685 -0.1251
 3775W        W14035  13.761   1.910   1.457 -0.2162  0.1517  0.5430
 3776W        W14036   2.869   8.426   0.188  0.0799  0.4126  0.0048
 3777W        W14037   2.331   9.158   0.296 -0.1566  0.2044 -0.0550
 3778W        W14038  11.142  16.243   8.395 -0.1784 -0.3513  0.1046
 3779W        W14039  13.118  16.303   7.955  0.0950  0.3101  0.4019
 3780W        W14040   2.010  13.061   1.134 -0.0942  0.3449 -0.1259
 3781W        W14041   2.935  12.094   8.533  0.0666 -0.1158  0.2538
 3782W        W14042  13.974  11.656   2.415 -0.0123  0.1793 -0.1957
 3783W        W14043  11.613  11.371   7.972  0.0139  0.2685 -0.1377
 3784W        W14044  16.418   7.985   6.405 -0.0357 -0.0802  0.0786
 3785W        W14045   8.319   3.078   8.328 -0.0259  0.1937 -0.0300
 3786W        W14046  13.221  13.283   8.034 -0.0748 -0.1469  0.0584
 3787W        W14047  13.898   9.587   8.145 -0.0666 -0.3110  0.2088
 3788W        W14048  13.963  13.046   7.109 -0.5200  0.0356 -0.0425
 3789W        W14049  15.270  13.087   6.675  0.0636 -0.0909 -0.1653
 3790W        W14050  16.438   9.295   1.265  0.0573 -0.0837  0.0992
 3791W        W14051   1.652   9.582   0.878  0.2109 -0.1974 -0.1335
 3792W        W14052  14.257   9.836   8.490  0.4146  0.0681 -0.0492
 3793W        W14053  12.499   8.312   7.531  0.0463 -0.1389  0.0568
 3794W        W14054   3.298   8.766   0.262 -0.1580 -0.2632  0.1299
 3795W        W14055  12.997  13.172   0.673 -0.1826 -0.1773 -0.1498
 3796W        W14056   7.480   8.483   7.095  0.1081 -0.0098  0.0857
 3797W        W14057  14.510   7.465   0.392  0.0701  0.1148 -0.1937
 3798W        W14058  15.773  10.789   6.911 -0.2502 -0.0020  0.0597
 3799W        W14059   1.883  10.739   7.795  0.2119 -0.1386  0.0272
 3800W        W14060   0.624   4.451   0.111 -0.0579  0.1075  0.2507
 3801W        W14061  13.789  15.345   8.041  0.1314 -0.0409  0.2314
 3802W        W14062  14.362  14.312   1.526  0.3221 -0.0911  0.0588
 3803W        W14063  16.028   9.821   0.738  0.0204  0.0544  0.0505
 3804W        W14064  15.505   3.453   2.714 -0.0459 -0.0719  0.1252
 3805W        W14065   9.271  10.798   1.434 -0.0186 -0.1399 -0.0416
 3806W        W14066  15.340   7.568   6.532  0.0885 -0.2274  0.0029
 3807W        W14067  15.676   3.013   1.915 -0.1363  0.0618  0.1009
 3808W        W14068   3.308   6.950   7.565 -0.0080 -0.0621 -0.2683
 3809W        W14069   9.022   5.913   6.947  0.0841 -0.3197  0.0349
 3810W        W14070  11.448  13.600   1.203 -0.2074  0.0685  0.1986
 3811W        W14071  16.478  10.763   6.553  0.3255  0.0171  0.3756
 3812W        W14072  13.542   5.521   0.162 -0.2865  0.2399 -0.0751
 3813W        W14073  15.661  10.401   0.695 -0.0205 -0.1197  0.1623
 3814W        W14074  15.385   4.923   6.365  0.3511  0.0507  0.0293
 3815W        W14075  13.745   9.884   7.707 -0.3163 -0.1428  0.0404
 3816W        W14076   4.712   7.381   1.634 -0.2998  0.0794 -0.3301
 3817W        W14077  14.080   6.863   1.699 -0.0529  0.1650  0.1763
 3818W        W14078  14.342   7.031   0.241 -0.2807  0.2264  0.1333
 3819W        W14079   1.166   9.510   8.290 -0.0773 -0.2015  0.2003
 3820W        W14080  16.484   5.359   5.915  0.2679  0.1676 -0.0363
 3821W        W14081  16.304   9.541   1.701  0.1083  0.1934  0.1204
 3822W        W14082  14.513   3.956   7.230 -0.2143  0.2352  0.1553
 3823W        W14083  11.055   4.825   1.305 -0.5280  0.2281 -0.0752
 3824W        W14084   5.227   3.594   7.772  0.0493 -0.4210  0.1787
 3825W        W14085   0.689   9.713   8.202 -0.0562 -0.1600 -0.5050
 3826W        W14086   9.341   5.000   7.656 -0.3247 -0.1940  0.1179
 3827W        W14087   9.602   8.708   0.479 -0.0270 -0.0867  0.2560
 3828W        W14088  11.198  13.650   1.709 -0.0690 -0.2079 -0.0007
 3829W        W14089   0.227   6.794   8.289 -0.0168 -0.0142 -0.1317
 3830W        W14090   2.814   6.532   0.315  0.2539 -0.2919 -0.2143
 3831W        W14091  13.472  16.200   1.046  0.1870 -0.0042 -0.1123
 3832W        W14092  11.324   9.643   2.309  0.0769 -0.3946  0.4364
 3833W        W14093   0.942   5.222   2.065 -0.2157 -0.4804  0.1586
 3834W        W14094  13.290  10.869   0.662 -0.0217  0.3571  0.4957
 3835W        W14095  14.796  10.469   1.059  0.0196 -0.4119  0.1470
 3836W        W14096   2.372   6.881   1.515  0.1507  0.2928  0.0250
 3837W        W14097  14.225  10.038   7.962  0.0802  0.0474 -0.0949
 3838W        W14098  15.090  13.491   8.584 -0.2515 -0.2923 -0.1627
 3839W        W14099   3.474   6.910   6.768 -0.1878 -0.0074 -0.0927
 3840W        W14100   0.512   9.393   7.828 -0.1493 -0.0716  0.2062
 3841W        W14101   0.765  10.358   8.481  0.2293 -0.0136 -0.0255
 3842W        W14102  14.731  12.455   7.599 -0.2522 -0.0019 -0.1351
 3843W        W14103   9.527  13.150   6.888  0.1029 -0.2611 -0.0624
 3844W        W14104  11.108   5.991   7.046 -0.1769 -0.1734  0.0858
 3845W        W14105  11.100   7.892   1.167  0.0148  0.3170 -0.2780
 3846W        W14106   1.468   5.686   0.220  0.2093 -0.3233  0.0575
 3847W        W14107   5.369   5.647   0.861  0.2264 -0.3115  0.1982
 3848W        W14108  15.457   6.703   0.973  0.2571 -0.3041  0.2643
 3849W        W14109  12.883   6.677   7.132  0.0819 -0.0664  0.0489
 3850W        W14110   9.133   3.448   7.917 -0.1668 -0.2300 -0.0514
 3851W        W14111   1.582   4.811   1.284 -0.1423  0.0771  0.0142
 3852W        W14112  14.676   3.212   7.297  0.1839 -0.4373  0.4180
 3853W        W14113   5.499   8.377   0.823  0.2117  0.0823 -0.0219
 3854W        W14114   6.028   8.576   2.854  0.0550 -0.2567 -0.1626
 3855W        W14115   0.126  16.023   1.408 -0.2203 -0.1851 -0.0038
 3856W        W14116  14.683   6.270   6.741  0.1335  0.0355 -0.0508
 3857W        W14117   3.335  10.276   0.691  0.1713  0.0140 -0.0279
 3858W        W14118  12.428   9.241   7.029  0.2824  0.1642  0.0486
 3859W        W14119  12.238  15.067   6.276 -0.1057 -0.3561  0.1530
 3860W        W14120   0.050  12.780   7.976  0.0797 -0.2064  0.1954
 3861W        W14121  11.740   9.175   1.041  0.0925 -0.0615  0.0195
 3862W        W14122   1.804  12.331   7.088  0.1466 -0.0140  0.0313
 3863W        W14123   1.164   5.280   8.660 -0.1509  0.1536  0.0067
 3864W        W14124  16.171  12.140   0.076  0.2911  0.3338  0.2526
 3865W        W14125   4.607   7.209   7.196 -0.0847  0.1278  0.0566
 3866W        W14126   4.440  11.006   7.995 -0.0020  0.1469 -0.1869
 3867W        W14127  13.851   8.978   1.369  0.0072 -0.0059 -0.1273
 3868W        W14128  12.829  12.692   8.656  0.0557 -0.1136  0.2057
 3869W        W14129  12.678  14.445   0.666 -0.4281 -0.4096 -0.1462
 3870W        W14130  14.642   9.970   1.192 -0.1016  0.1676  0.2226
 3871W        W14131   2.080  10.014   0.275 -0.0743 -0.0732 -0.0315
 3872W        W14132   9.716  10.972   8.246  0.1979  0.4381  0.1114
 3873W        W14133  16.181   9.343   0.822  0.2041 -0.3354 -0.1194
 3874W        W14134  15.069   0.858   7.807 -0.0410 -0.5052  0.1491
 3875W        W14135   7.116   8.275   1.155 -0.4220  0.3179 -0.1354
 3876W        W14136  12.228   5.619   0.647 -0.0812  0.1860 -0.0343
 3877W        W14137   8.018   9.511   1.829  0.0033  0.1087 -0.3180
 3878W        W14138  16.411  10.156   6.906  0.0152  0.0173 -0.0176
 3879W        W14139   2.164   8.105   1.053 -0.0472  0.1749  0.1117
 3880W        W14140  10.841  10.168   1.083  0.2105  0.2014 -0.1077
 3881W        W14141   2.177   6.433   7.501  0.1588 -0.3223  0.0174
 3882W        W14142   5.110   3.482   6.503  0.2292  0.1665  0.0942
 3883W        W14143  15.055  15.846   6.113  0.1086  0.3942 -0.1290
 3884W        W14144   8.395   7.673   1.839 -0.0459  0.0752 -0.2420
 3885W        W14145  16.515   5.562   0.050 -0.0811  0.1231 -0.3528
 3886W        W14146   2.913  11.715   7.537 -0.1824  0.1546  0.1187
 3887W        W14147   6.039  12.756   1.318  0.1287  0.1245  0.3347
 3888W        W14148  16.283  14.676   8.475 -0.0418 -0.0306  0.0363
 3889W        W14149   9.237  11.270   1.141 -0.1862 -0.0561  0.1397
 3890W        W14150   6.408   6.307   7.756 -0.0913  0.0364  0.0948
 3891W        W14151   0.567  11.988   7.675  0.2782  0.0066 -0.0205
 3892W        W14152   0.031   6.550   6.425 -0.0388 -0.2253  0.0730
 3893W        W14153  16.210  10.317   0.178  0.0392 -0.0828  0.0943
 3894W        W14154   6.433  12.551   0.819 -0.0749 -0.0799  0.1317
 3895W        W14155  14.240  13.512   8.226  0.3711  0.0306  0.0774
 3896W        W14156   2.413  15.817   0.883  0.2177 -0.2835 -0.0510
 3897W        W14157   2.541  14.075   6.261 -0.2722 -0.0914  0.0458
 3898W        W14158   1.679   2.499   1.395  0.2317 -0.3434  0.1463
 3899W        W14159   4.947   6.307   7.140 -0.3355  0.2053 -0.0065
 3900W        W14160  16.181  12.096   6.857  0.3873 -0.4447  0.0511
 3901W        W14161   5.183  11.046   8.384 -0.3535  0.0148 -0.2225
 3902W        W14162   8.770  11.258   8.085 -0.0094 -0.0720  0.2692
 3903W        W14163   6.267  11.350   6.764 -0.2689 -0.1210  0.0992
 3904W        W14164  13.372  12.176   6.660 -0.0316 -0.1883 -0.2451
 3905W        W14165  14.707   7.804   0.650  0.1002 -0.1352  0.0028
 3906W        W14166  15.041  13.416   0.900  0.0598 -0.2437  0.0483
 3907W        W14167   3.876  14.014   7.482  0.0162  0.0750 -0.0473
 3908W        W14168  14.744  12.447   0.479 -0.0575  0.1129 -0.1250
 3909W        W14169  14.733  10.191   0.587 -0.0630 -0.0166 -0.1548
 3910W        W14170   5.333  10.656   0.532  0.2108 -0.1573 -0.0034
 3911W        W14171  15.046  11.063   7.536 -0.0233  0.2077  0.0713
 3912W        W14172  12.515  15.412   6.532  0.0849 -0.2449  0.1076
 3913W        W14173  14.863  14.999   6.611  0.0523 -0.1651  0.0425
 3914W        W14174   3.391   2.502   0.184  0.4312  0.0523  0.0760
 3915W        W14175   0.279  11.356   0.368  0.2082  0.1645  0.1212
 3916W        W14176   6.543  13.453   6.644 -0.3139  0.2832  0.0977
 3917W        W14177   0.937  13.053   2.622  0.0301  0.4214  0.0170
 3918W        W14178   7.268   9.688   7.955 -0.0039  0.2780 -0.0812
 3919W        W14179   1.398  11.887   8.611 -0.0571 -0.1992 -0.1073
 3920W        W14180  14.767  12.873   0.274 -0.2314 -0.5958 -0.3341
 3921W        W14181   0.436  13.705   7.546 -0.2533  0.0564 -0.2834
 3922W        W14182  15.016   7.586   1.042 -0.0279 -0.0863  0.1856
 3923W        W14183   1.286   7.749   2.490 -0.0502 -0.2111 -0.1730
 3924W        W14184  11.925  16.023   8.346 -0.2240 -0.1038  0.1182
 3925W        W14185   7.041  10.418   7.101 -0.1678 -0.0451 -0.0077
 3926W        W14186   7.026   4.820   6.973  0.1500 -0.1318  0.3121
 3927W        W14187  16.565  12.746   0.683  0.1665 -0.1938 -0.0599
 3928W        W14188  14.888  15.558   6.562 -0.0567  0.3607 -0.1216
 3929W        W14189   7.238   7.201   2.515  0.0158 -0.0274  0.0999
 3930W        W14190  15.009   8.756   1.440  0.1775 -0.3441  0.2224
 3931W        W14191   1.263  11.593   7.905  0.0893 -0.1735  0.2788
 3932W        W14192  14.569  16.474   0.924  0.0617 -0.0337  0.1739
 3933W        W14193   5.470  10.765   0.010  0.1645 -0.1972 -0.0826
 3934W        W14194  12.963   9.067   1.810  0.0596  0.0282  0.3847
 3935W        W14195   2.931  12.342   7.634  0.1797 -0.2601  0.0566
 3936W        W14196   5.170  10.583   6.488 -0.0343  0.0061 -0.3467
 3937W        W14197   2.256   2.421   7.978  0.1734  0.3161 -0.1271
 3938W        W14198   0.726   9.571   0.396 -0.0915 -0.2875 -0.0784
 3939W        W14199   4.555  15.018   1.233  0.1341  0.0175  0.0216
 3940W        W14200   3.144   7.051   8.413 -0.0200  0.1312  0.2634
 3941W        W14201   6.675  10.577   0.762  0.0338  0.0938 -0.0873
 3942W        W14202   2.520  13.464   0.903  0.2831  0.1256 -0.0243
 3943W        W14203  15.016  15.472   8.296  0.1251  0.1760  0.2833
 3944W        W14204   5.263  10.872   1.047  0.2356 -0.3942  0.1777
 3945W        W14205   5.773  13.506   0.706  0.0117  0.2101  0.0017
 3946W        W14206   1.628   5.797   7.136  0.0337  0.1433  0.1078
 3947W        W14207   1.502  15.061   6.754  0.1607  0.1114  0.3033
 3948W        W14208  12.655  12.440   1.825 -0.2465 -0.0977 -0.0435
 3949W        W14209   4.202  10.381   2.001 -0.2803 -0.0322  0.1619
 3950W        W14210   7.902   9.326   0.471  0.1630 -0.1677 -0.2105
 3951W        W14211   3.038   9.945   0.192 -0.0035 -0.2883 -0.1619
 3952W        W14212   2.462   0.150   0.495 -0.1015  0.0344 -0.1392
 3953W        W14213   0.333  10.914   0.004  0.0664  0.2501 -0.0315
 3954W        W14214   6.006   1.937   6.754  0.0476 -0.5887  0.3312
 3955W        W14215  13.363  11.536   8.270 -0.0155  0.0391  0.2630
 3956W        W14216   3.983  10.218   7.480 -0.1534 -0.2422 -0.1260
 3957W        W14217   2.086   2.440   1.079 -0.4015  0.3982 -0.1097
 3958W        W14218   9.089  12.930   8.650  0.3024  0.1631  0.0551
 3959W        W14219  14.003   9.763   0.351 -0.0172  0.1142  0.0183
 3960W        W14220   7.178  15.020   1.429  0.0957 -0.1108  0.0033
 3961W        W14221   3.373  12.576   1.284  0.3310  0.0018 -0.1795
 3962W        W14222   0.147  16.333   7.678  0.1801  0.0227 -0.2368
 3963W        W14223  11.770  15.612   1.481  0.4546 -0.0272  0.0580
 3964W        W14224   6.057  12.128   0.674 -0.2035 -0.4204  0.2340
 3965W        W14225  15.165  12.621   0.817 -0.0810 -0.2174 -0.0502
 3966W        W14226   0.414  12.223   8.584 -0.1807  0.3330 -0.0570
 3967W        W14227  13.532   7.826   0.188 -0.0837 -0.0486  0.0238
 3968W        W14228   0.869  10.714   0.141 -0.1017 -0.0752  0.2875
 3969W        W14229   1.074  16.581   8.493 -0.2990  0.2408  0.2592
 3970W        W14230  14.078  10.378   8.518  0.0273  0.0722 -0.0562
 3971W        W14231   8.898   7.025   1.573  0.0152 -0.0479  0.0902
 3972W        W14232   3.286  10.375   2.032 -0.0187  0.2466 -0.2350
 3973W        W14233  10.987   8.002   8.244 -0.0604  0.2270 -0.1420
 3974W        W14234   0.236  12.842   0.023 -0.0696 -0.1247  0.2378
 3975W        W14235   3.770   0.461   8.350 -0.0560  0.0847 -0.1283
 3976W        W14236   2.140  10.751   1.527 -0.1597 -0.0111  0.0225
 3977W        W14237  15.938   6.828   8.335  0.5247  0.0024  0.0889
 3978W        W14238   2.599  12.469   1.878  0.1752 -0.0689  0.4364
 3979W        W14239  15.619  14.141   1.327 -0.2682  0.1474 -0.2023
 3980W        W14240   2.005   9.991   0.898  0.0609 -0.1061  0.0920
 3981W        W14241   1.529  12.493   0.532 -0.0304 -0.0201  0.1444
 3982W        W14242  12.874  10.686   0.338 -0.0536 -0.0129 -0.2031
 3983W        W14243  16.374   7.555   7.582 -0.1647 -0.1964  0.2124
 3984W        W14244   7.447   6.719   2.580  0.1592  0.2090 -0.0950
 3985W        W14245   4.416  12.961   2.094 -0.1487  0.2151  0.1331
 3986W        W14246   4.738   7.545   6.181  0.0393 -0.0577  0.0403
 3987W        W14247  15.926   9.887   7.202  0.2226  0.0589 -0.5415
 3988W        W14248  14.860  12.804   6.781 -0.5833  0.3519 -0.2359
 3989W        W14249   5.358  13.970   7.506  0.0990 -0.1078  0.0932
 3990W        W14250   1.079  13.827   7.060 -0.2662  0.2526  0.0008
 3991W        W14251   6.883   7.742   0.126  0.1479  0.0202 -0.1811
 3992W        W14252  14.776  13.321   8.103 -0.2671  0.0631 -0.0910
 3993W        W14253   0.383   4.383   2.599 -0.0829  0.0204  0.0815
 3994W        W14254   0.125  11.880   8.245  0.0459 -0.0548  0.0536
 3995W        W14255   3.451  13.423   8.097 -0.0281  0.0710  0.0659
 3996W        W14256  13.761  14.050   0.206  0.0635 -0.3665 -0.0712
 3997W        W14257  11.930  11.267   7.457  0.0045 -0.0223  0.1406
 3998W        W14258   0.827  10.604   0.706 -0.3121  0.1303  0.0249
 3999W        W14259   1.151  10.334   2.500 -0.4283 -0.1423 -0.2675
 4000W        W14260   0.234   9.696   6.747  0.0562  0.0464 -0.0613
 4001W        W14261   6.783  15.382   7.722  0.1387 -0.3005 -0.1868
 4002W        W14262   3.251  11.370   7.796 -0.1435 -0.2860  0.1899
 4003W        W14263   3.691   6.418   0.114  0.0311  0.1387  0.1811
 4004W        W14264   7.793   7.131   7.175  0.0006 -0.0910 -0.0636
 4005W        W14265   4.275  13.192   7.708  0.3890  0.0574  0.1493
 4006W        W14266  14.499  11.418   7.048 -0.0791  0.0257 -0.0849
 4007W        W14267  15.763  12.784   2.388  0.2224 -0.1590  0.1057
 4008W        W14268   6.769  12.390   6.810  0.2355 -0.0418  0.1503
 4009W        W14269  15.839  14.995   6.686 -0.2812 -0.3186 -0.1247
 4010W        W14270   2.396  14.059   7.549  0.1040 -0.0094  0.0047
 4011W        W14271   6.530   7.345   0.338 -0.0645 -0.1525 -0.1029
 4012W        W14272   0.767   0.973   1.531 -0.1413  0.0209 -0.2109
 4013W        W14273   4.059  13.476   7.361 -0.1732 -0.1481  0.0130
 4014W        W14274   0.418   8.808   8.585  0.0020  0.3264 -0.0200
 4015W        W14275  14.825   2.593   1.608 -0.0390 -0.2493  0.1525
 4016W        W14276  11.399  11.507   0.065  0.1833  0.0141 -0.2461
 4017W        W14277  11.342  13.615   0.462 -0.2654 -0.0644 -0.2857
 4018W        W14278   5.483   5.327   7.339 -0.0293  0.0628 -0.0343
 4019W        W14279   6.829  13.602   1.056  0.0322 -0.1835 -0.1121
 4020W        W14280   2.737  15.451   0.722  0.0320 -0.2415  0.2035
 4021W        W14281   1.615   7.093   0.818 -0.0106 -0.1320 -0.1172
 4022W        W14282   6.607   9.155   6.872 -0.0581 -0.0572  0.0200
 4023W        W14283   2.153  11.323   7.849 -0.1488 -0.3297  0.0180
 4024W        W14284   0.907  13.773   7.906 -0.0226  0.2868  0.0352
 4025W        W14285  13.845  16.029   0.661 -0.3180 -0.0369  0.2151
 4026W        W14286  15.265   7.534   7.362  0.0701  0.3146  0.0174
 4027W        W14287   5.409  11.316   8.019 -0.2078  0.3365 -0.1465
 4028W        W14288   3.146   8.107   6.333 -0.1879 -0.1011 -0.0263
 4029W        W14289   6.475  14.149   0.301  0.2247 -0.1489 -0.2710
 4030W        W14290  12.329   2.444   1.827  0.4182 -0.0778 -0.1580
 4031W        W14291   6.454  14.642   8.325  0.0896 -0.1789 -0.3918
 4032W        W14292   1.919  13.942   0.132 -0.1319  0.1109  0.1317
 4033W        W14293   0.182  14.024   8.557 -0.1036  0.1720  0.0164
 4034W        W14294   2.628   5.816   1.676 -0.0607 -0.0764 -0.1300
 4035W        W14295   1.293  14.193   1.570 -0.1649 -0.0490 -0.0356
 4036W        W14296   1.764   5.897   1.720 -0.0579 -0.1215 -0.1711
 4037W        W14297   1.521  15.816   8.607 -0.0153 -0.0820 -0.1795
 4038W        W14298   2.569  12.959   6.476  0.3016 -0.1380 -0.0346
 4039W        W14299   0.203   6.759   6.932 -0.2060 -0.1406  0.2079
 4040W        W14300   1.802  12.111   1.313 -0.2150  0.1899 -0.1537
 4041W        W14301   2.799  12.801   2.595  0.0599  0.1241  0.0676
 4042W        W14302   1.880   6.587   7.884 -0.4960 -0.0009  0.0375
 4043W        W14303   3.190   0.284   7.533  0.2013 -0.0340  0.1500
 4044W        W14304  10.457  14.458   8.117 -0.1399  0.0268 -0.4032
 4045W        W14305   2.939  10.145   6.219  0.1731 -0.0862 -0.0571
 4046W        W14306  11.857   1.255   7.939  0.0644  0.0944 -0.2203
 4047W        W14307   2.679  12.090   7.249 -0.1759 -0.3710 -0.0339
 4048W        W14308   6.087  13.047   6.816  0.0163  0.0266  0.0955
 4049W        W14309   1.130  11.016   0.504 -0.0036 -0.2213 -0.0291
 4050W        W14310   2.531  12.882   1.004  0.0773  0.0297  0.0458
 4051W        W14311   7.427   9.972   1.179 -0.0778  0.0313  0.1089
 4052W        W14312   1.821   9.686   1.319  0.2686  0.1236 -0.1518
 4053W        W14313  15.881  10.161   1.960  0.0994 -0.1142  0.0529
 4054W        W14314   2.224  12.012   0.272  0.0068 -0.1203  0.3044
 4055W        W14315  14.278  13.115   0.391 -0.2607  0.1168  0.1269
 4056W        W14316   1.551  15.121   0.607 -0.0601 -0.1765  0.0162
 4057W        W14317   4.284  13.375   0.530 -0.0666  0.1514 -0.1491
 4058W        W14318   4.809  10.449   7.337 -0.0512  0.1589  0.1107
 4059W        W14319  12.497  12.410   7.113 -0.0063 -0.0401 -0.0868
 4060W        W14320   9.305  13.266   1.774  0.0308  0.0638  0.1514
 4061W        W14321   4.139   9.454   6.568  0.1309 -0.1795  0.0287
 4062W        W14322   0.983  12.419   7.460  0.1496  0.3610 -0.1328
 4063W        W14323  15.377  11.065   8.540  0.1077 -0.1887  0.0502
 4064W        W14324   0.036  15.109   7.160  0.0311  0.0220  0.4579
 4065W        W14325   3.539  13.717   7.100 -0.0404  0.1895  0.0824
 4066W        W14326   5.192  13.447   7.650 -0.0442  0.1601 -0.2474
 4067W        W14327  15.361  13.204   7.501 -0.0751  0.0976  0.0411
 4068W        W14328   3.748   7.586   1.595  0.1405 -0.2013 -0.0790
 4069W        W14329  10.587   2.050   0.767  0.0389 -0.1273  0.0503
 4070W        W14330  15.337   0.925   0.031  0.0259 -0.0753  0.1437
 4071W        W14331  15.479  14.343   6.308  0.2122 -0.1450  0.0577
 4072W        W14332   2.076   0.497   0.559 -0.1095 -0.0226  0.1867
 4073W        W14333  15.854  15.627   1.448  0.2781  0.2275  0.1850
 4074W        W14334   3.810  10.211   0.519 -0.1330 -0.1697  0.2138
 4075W        W14335   8.605  10.612   0.318  0.2765 -0.0973 -0.3189
 4076W        W14336   5.918  10.852   1.710  0.2069  0.0505  0.0095
 4077W        W14337   5.292  13.240   0.766 -0.2354  0.1175  0.3513
 4078W        W14338   0.217   8.144   0.331 -0.1326  0.0778  0.0810
 4079W        W14339   0.714  11.093   8.436  0.0110 -0.3480  0.2629
 4080W        W14340  12.443   1.290   0.811 -0.1369  0.0799 -0.3248
 4081W        W14341   1.363  12.719   2.065  0.1298  0.3061  0.3581
 4082W        W14342   4.760  16.055   8.060  0.4393 -0.0081  0.0486
 4083W        W14343   7.104   7.703   7.108  0.0484  0.2120 -0.1186
 4084W        W14344   6.805  12.674   1.873 -0.1208  0.0545  0.0430
 4085W        W14345   4.281   8.152   0.471  0.3408  0.1074  0.1244
 4086W        W14346   9.785  13.487   0.681 -0.1151  0.2427  0.2066
 4087W        W14347   7.370  14.062   6.767  0.0114 -0.1692 -0.1998
 4088W        W14348  16.221  15.310   6.898  0.0436 -0.1065  0.1162
 4089W        W14349   5.457  14.503   1.139  0.1294  0.1600 -0.1118
 4090W        W14350   1.876   7.913   1.403  0.1313  0.2335 -0.4148
 4091W        W14351   3.717  10.436   0.949 -0.2694 -0.0407 -0.1034
 4092W        W14352   5.505  10.233   0.014  0.0500  0.2896 -0.5109
 4093W        W14353   0.293  13.190   0.446 -0.0089  0.0699 -0.2723
 4094W        W14354   6.561  14.173   1.691  0.0155 -0.1705 -0.0014
 4095W        W14355  11.797   9.741   8.396 -0.2773 -0.0979 -0.1286
 4096W        W14356   6.846   9.556   6.646 -0.0274  0.1112  0.2356
 4097W        W14357   7.985  15.737   0.250  0.1198 -0.1549  0.0633
 4098W        W14358   1.714   3.897   1.636  0.0833 -0.1732 -0.0798
 4099W        W14359   0.396  13.684   8.176  0.1705  0.0141  0.2746
 4100W        W14360   3.742  15.529   7.254 -0.3682 -0.0280  0.3879
 4101W        W14361   7.658  15.954   1.559 -0.1332  0.0682  0.0623
 4102W        W14362  14.873  12.938   1.636 -0.0864 -0.4076 -0.0637
 4103W        W14363   9.841  11.898   8.423 -0.0790  0.0502  0.1148
 4104W        W14364   7.857  11.481   7.083 -0.1607 -0.1071 -0.3292
 4105W        W14365   5.270   0.263   8.419  0.1670 -0.2939 -0.3455
 4106W        W14366   5.955  11.722   6.571  0.0667 -0.3719 -0.0163
 4107W        W14367   8.215  10.152   7.489 -0.2535 -0.3588 -0.2864
 4108W        W14368   2.479   9.896   8.500 -0.0677 -0.0538  0.2822
 4109W        W14369   5.916  10.314   7.573  0.0006  0.0969  0.1491
 4110W        W14370  15.743  11.265   1.681 -0.1263 -0.2914  0.0945
 4111W        W14371   1.325  15.234   8.242  0.1926  0.0851  0.1083
 4112W        W14372   2.171   9.424   2.007 -0.1791  0.3292 -0.1507
 4113W        W14373   2.388  10.853   8.561 -0.0271 -0.0641 -0.0480
 4114W        W14374   0.077   8.042   7.167  0.1655  0.1389 -0.1665
 4115W        W14375   5.818  12.349   1.129  0.0381  0.1865 -0.0339
 4116W        W14376   8.727  13.313   1.673 -0.1564 -0.2142  0.1145
 4117W        W14377   8.639  12.175   1.227  0.1834  0.1084  0.1422
 4118W        W14378   2.871  10.715   2.302  0.2452 -0.1936 -0.2013
 4119W        W14379   2.718   6.220   7.009  0.2842  0.0301 -0.2031
 4120W        W14380   9.921  13.103   0.353 -0.2137 -0.1878  0.1138
 4121W        W14381   7.068   7.456   7.777  0.2475  0.0100  0.2353
 4122W        W14382   5.245   7.515   7.789  0.0240 -0.0923  0.2059
 4123W        W14383   9.682  14.038   0.133 -0.1484  0.0358  0.3896
 4124W        W14384  16.546  11.648   1.030  0.3277 -0.0332 -0.3503
 4125W        W14385   2.040   9.793   2.343 -0.3142  0.0687 -0.3444
 4126W        W14386   4.760  12.135   7.213  0.0027 -0.2207  0.0912
 4127W        W14387   6.485  10.819   6.865 -0.0047  0.0908  0.1663
 4128W        W14388   8.361   7.643   6.484  0.0096  0.1086 -0.0052
 4129W        W14389   6.019  11.004   8.589 -0.1585 -0.1542 -0.1220
 4130W        W14390  14.870  15.445   7.191 -0.1224  0.0487 -0.0180
 4131W        W14391   7.969  14.997   2.641  0.1784  0.0109 -0.1421
 4132W        W14392   6.838  15.956   1.858 -0.2376  0.0671  0.2416
 4133W        W14393   1.188  11.061   7.173 -0.1220 -0.0078 -0.1445
 4134W        W14394   4.874   6.541   2.066 -0.1461 -0.4979 -0.1279
 4135W        W14395   5.887  10.737   7.111  0.2873  0.0909  0.2308
 4136W        W14396   6.790   6.467   0.539 -0.0591 -0.1103  0.0353
 4137W        W14397  14.613  11.055   0.115 -0.0405 -0.0645  0.0680
 4138W        W14398   9.770   9.842   6.305 -0.0484 -0.1128  0.0981
 4139W        W14399   2.509  11.171   6.803 -0.2104  0.2091 -0.1208
 4140W        W14400   8.834  12.785   0.431 -0.0214  0.1082 -0.0774
 4141W        W14401   4.230  15.876   7.246  0.1122 -0.1023 -0.0047
 4142W        W14402   1.639  10.058   0.566  0.1555 -0.0669  0.0016
 4143W        W14403   0.956  16.230   7.407 -0.0156  0.0397 -0.0202
 4144W        W14404   8.684  10.347   7.514 -0.4577  0.1367 -0.0296
 4145W        W14405   4.241   0.025   0.432 -0.1331  0.0451  0.1251
 4146W        W14406   6.586   7.465   8.404 -0.3874  0.2211 -0.0754
 4147W        W14407   7.512  14.392   1.869 -0.0003 -0.0050 -0.1994
 4148W        W14408   2.406  14.520   6.512 -0.1673  0.1642 -0.0247
 4149W        W14409   6.559  16.393   1.142  0.3280 -0.0220  0.1949
 4150W        W14410   5.825   3.910   1.424  0.1766 -0.1775 -0.0189
 4151W        W14411   0.538  12.845   7.897  0.2185  0.0817  0.3185
 4152W        W14412   7.543   0.065   1.773  0.2722 -0.0397  0.1856
 4153W        W14413   3.037  10.501   1.589  0.2083 -0.2283  0.0162
 4154W        W14414   1.643  11.045   0.470  0.0227 -0.2924 -0.0612
 4155W        W14415  10.137  13.736   1.866  0.0526 -0.0087  0.0630
 4156W        W14416   5.785  13.072   7.597 -0.2448 -0.2661  0.0343
 4157W        W14417   9.041   5.861   1.799 -0.1002 -0.0088  0.2195
 4158W        W14418   3.499   1.554   0.493  0.0992 -0.0476 -0.2037
 4159W        W14419   2.823  10.053   7.704 -0.2483 -0.1986 -0.0788
 4160W        W14420   0.469  14.017   1.011 -0.1631 -0.0024 -0.2668
 4161W        W14421   7.972  10.957   2.416  0.0558  0.2748 -0.1807
 4162W        W14422   9.628   6.355   0.365 -0.0169  0.0102 -0.1149
 4163W        W14423   4.237   9.477   8.408  0.2382 -0.0559 -0.2407
 4164W        W14424   7.743  15.009   8.018 -0.3107 -0.2321  0.1897
 4165W        W14425  16.514   8.673   1.917 -0.1007  0.2337 -0.1028
 4166W        W14426   7.785  12.399   6.367  0.2684 -0.2028  0.0015
 4167W        W14427   2.243  11.155   1.785  0.3531  0.0729  0.3181
 4168W        W14428  13.489  13.964   1.684  0.1860  0.1021 -0.2274
 4169W        W14429   3.169  11.156   0.217  0.1914  0.0945 -0.1464
 4170W        W14430   5.658   2.489   1.951  0.1159  0.0246  0.2563
 4171W        W14431   6.485   6.319   0.122 -0.2579  0.1036  0.0143
 4172W        W14432   9.928  15.957   0.260  0.1891 -0.0735 -0.0077
 4173W        W14433   9.906  13.998   7.502 -0.1486  0.1965 -0.2158
 4174W        W14434  12.011  13.747   7.557 -0.0555  0.0498  0.0290
 4175W        W14435   4.211   7.159   0.409  0.0826 -0.2212 -0.0165
 4176W        W14436   0.845  15.391   7.456  0.1668 -0.0543 -0.0051
 4177W        W14437   3.229  12.897   8.199  0.2755  0.1492 -0.0596
 4178W        W14438   4.893  13.873   7.636 -0.1037  0.1570 -0.0694
 4179W        W14439   8.038  10.805   8.276 -0.2559  0.2611  0.1718
 4180W        W14440   3.950  10.552   1.579 -0.1857  0.0425  0.0549
 4181W        W14441  15.816   9.820   1.578 -0.0286  0.1141  0.1370
 4182W        W14442   6.639  10.682   7.993  0.0987 -0.4858 -0.3184
 4183W        W14443   6.437   5.156   8.083  0.0777  0.2362 -0.0944
 4184W        W14444   4.161  10.018   7.869 -0.3747  0.1109  0.1228
 4185W        W14445   4.928   8.230   8.308 -0.1168 -0.2280 -0.1079
 4186W        W14446   5.277  14.647   0.624 -0.0614  0.0738 -0.1991
 4187W        W14447  15.630   4.716   1.415  0.3623  0.1951  0.3020
 4188W        W14448   7.678  12.579   7.857  0.0367  0.2411 -0.0440
 4189W        W14449  15.371  10.760   7.287 -0.0868 -0.2375 -0.1290
 4190W        W14450   1.831  14.688   6.906 -0.0025  0.0532 -0.0215
 4191W        W14451   4.899  13.664   8.555 -0.2200  0.0283  0.0144
 4192W        W14452   4.007   8.209   8.489  0.0002 -0.2027  0.5007
 4193W        W14453   8.667  16.262   0.628  0.0834 -0.0399 -0.0248
 4194W        W14454   5.072  13.663   0.751  0.1646  0.0114  0.1350
 4195W        W14455   9.115  16.398   0.420  0.1081 -0.1529  0.2142
 4196W        W14456   2.965   8.899   6.736 -0.0202 -0.1930  0.3161
 4197W        W14457   7.705   3.396   2.089 -0.1860  0.0324 -0.0017
 4198W        W14458   3.300   5.481   8.338  0.2851 -0.0393  0.4775
 4199W        W14459  12.179  15.369   1.489 -0.3560  0.3013  0.0416
 4200W        W14460   5.844  12.763   0.118 -0.0421 -0.1530 -0.1513
 4201W        W14461  15.789  11.003   8.318  0.0942 -0.2774 -0.0798
 4202W        W14462   8.613  14.444   1.837  0.1228 -0.1165 -0.0439
 4203W        W14463   8.265   8.493   7.229 -0.1903 -0.0231 -0.2044
 4204W        W14464   0.285  12.328   7.957  0.0075  0.0146 -0.2971
 4205W        W14465   6.421  16.314   7.010 -0.1665 -0.3537  0.0058
 4206W        W14466   4.976   9.521   7.840 -0.2000  0.1428 -0.4283
 4207W        W14467   2.107  12.365   8.013  0.1123 -0.2429 -0.0540
 4208W        W14468   1.672   8.287   0.971 -0.0779 -0.0057 -0.1870
 4209W        W14469   6.491  12.888   0.323  0.1581 -0.0107  0.2028
 4210W        W14470   3.925  13.531   0.184  0.1171  0.1993  0.2270
 4211W        W14471   5.153  15.881   1.110  0.2705  0.1670 -0.0598
 4212W        W14472   8.398  12.894   0.264 -0.1192  0.0392 -0.0778
 4213W        W14473   4.939  14.020   7.185 -0.0753 -0.4442  0.0862
 4214W        W14474  16.303  13.842   0.091 -0.1861 -0.0993  0.1485
 4215W        W14475   5.313   6.842   8.567 -0.0051 -0.0672  0.0108
 4216W        W14476   8.717  14.085   0.963  0.0150  0.1817 -0.2447
 4217W        W14477  11.864  14.453   1.731 -0.2291  0.2698 -0.1080
 4218W        W14478   3.272   7.168   6.391 -0.0134  0.0469  0.1396
 4219W        W14479   1.296  11.015   0.027 -0.0099  0.0235 -0.0556
 4220W        W14480   6.611   5.913   7.902 -0.0337  0.1200  0.0722
 4221W        W14481   9.836   8.756   8.265  0.2031  0.2014  0.0295
 4222W        W14482  16.187  12.657   8.023  0.0312  0.0746  0.0083
 4223W        W14483   6.664  12.124   7.229 -0.0033 -0.2892  0.0529
 4224W        W14484   6.040   5.188   7.720  0.2248  0.0209  0.1554
 4225W        W14485   7.928  14.619   6.036 -0.0720  0.1044  0.0250
 4226W        W14486   7.352   9.191   2.567  0.2972 -0.0823 -0.0827
 4227W        W14487   5.413   6.179   7.218 -0.0452 -0.0435  0.0446
 4228W        W14488   6.774   2.840   8.165 -0.0279 -0.2735  0.4385
 4229W        W14489   2.073  13.927   7.167  0.1828 -0.1118  0.0245
 4230W        W14490   7.493  15.797   7.121 -0.1054  0.0924 -0.2092
 4231W        W14491   6.281   9.912   7.451  0.0396 -0.0001 -0.0635
 4232W        W14492   7.892  13.727   8.452 -0.0683  0.3971 -0.0683
 4233W        W14493   2.103   9.589   8.674  0.0816 -0.1357 -0.2030
 4234W        W14494   6.031   7.731   2.294  0.0603  0.0900  0.0333
 4235W        W14495   3.865  10.739   7.383 -0.1960  0.1698 -0.1822
 4236W        W14496   5.175   7.992   0.054  0.1580 -0.1181 -0.0602
 4237W        W14497   5.525   8.548   1.251  0.3225  0.1206 -0.0329
 4238W        W14498   2.270  12.460   7.224 -0.3889  0.2805  0.0519
 4239W        W14499   7.797  11.093   6.697  0.0072  0.0433  0.1659
 4240W        W14500   4.620  11.717   7.460  0.1184  0.2844  0.0487
 4241W        W14501   7.095  10.874   7.370  0.1584 -0.3021 -0.0520
 4242W        W14502   8.911   6.474   1.613  0.3332  0.0101 -0.2287
 4243W        W14503   7.013   8.370   0.359 -0.2041  0.1565 -0.1316
 4244W        W14504   3.535  10.703   8.020  0.1137 -0.2616 -0.1630
 4245W        W14505   4.114   9.627   1.274 -0.0859 -0.0249  0.0246
 4246W        W14506   9.247  11.128   7.792  0.2287 -0.1856  0.0561
 4247W        W14507   2.542  13.774   8.061 -0.1909 -0.1675  0.2064
 4248W        W14508  10.876   7.496   8.371  0.1090  0.2273 -0.2250
 4249W        W14509   5.754  15.504   6.828 -0.0351 -0.2590 -0.0091
 4250W        W14510   5.010  14.915   6.990 -0.3592 -0.0041  0.3427
 4251W        W14511   0.608   7.515   2.006 -0.0042 -0.2618  0.0838
 4252W        W14512   4.415   0.371   2.138 -0.4301 -0.3189  0.0251
 4253W        W14513   5.197   7.416   6.448 -0.3734 -0.0044 -0.3077
 4254W        W14514  16.101  11.916   2.419  0.1659  0.0989 -0.2533
 4255W        W14515   2.217   9.256   7.396 -0.0705 -0.1326  0.2145
 4256W        W14516   2.054  13.780   2.127 -0.0364  0.0861  0.0996
 4257W        W14517   2.910   4.027   6.683 -0.1824 -0.1206 -0.0025
 4258W        W14518   3.401  10.931   7.639 -0.0226  0.2892 -0.1765
 4259W        W14519   5.838   4.093   7.140 -0.0020  0.2341  0.0405
 4260W        W14520  14.344  11.863   7.496 -0.2254 -0.0519  0.2214
 4261W        W14521  13.342  12.802   8.126 -0.2215 -0.1127 -0.1857
 4262W        W14522   3.809   4.580   8.588 -0.3036 -0.1021  0.0642
 4263W        W14523  12.141  12.218   7.869 -0.0413 -0.0364 -0.0698
 4264W        W14524   1.221  14.436   8.376 -0.1338 -0.2848  0.0756
 4265W        W14525   0.772   7.406   7.949 -0.0174  0.2147  0.0055
 4266W        W14526   1.970   1.765   1.943 -0.3146  0.0464  0.1994
 4267W        W14527   7.667   9.718   8.506  0.2017  0.2790 -0.0020
 4268W        W14528   4.331  16.012   2.361 -0.0828  0.3914 -0.0166
 4269W        W14529  11.914   4.592   0.787 -0.1007 -0.0568  0.2157
 4270W        W14530   2.847   0.559   1.913 -0.0561  0.0108 -0.1166
 4271W        W14531   8.591  13.072   1.232 -0.0351 -0.3279 -0.1101
 4272W        W14532   5.060   8.315   1.356  0.0807 -0.0412 -0.2653
 4273W        W14533   5.202  11.315   7.028  0.0409 -0.0091  0.0727
 4274W        W14534   3.905   1.152   1.338 -0.2209 -0.0300 -0.0316
 4275W        W14535   6.595   7.603   2.414  0.3431 -0.0545  0.0537
 4276W        W14536   6.910  14.231   8.659  0.2286 -0.0068  0.1705
 4277W        W14537   0.003  15.931   7.325 -0.2739  0.1659  0.0734
 4278W        W14538   3.376   5.928   8.091  0.2778  0.2662 -0.0982
 4279W        W14539   8.091   0.159   2.591 -0.0444 -0.2605  0.0594
 4280W        W14540  10.602  14.397   1.295  0.0506  0.0110  0.1894
 4281W        W14541  10.202   2.558   8.615  0.3096  0.2460 -0.2300
 4282W        W14542   8.866   9.110   1.643 -0.1024  0.0972  0.2655
 4283W        W14543   8.681  11.165   1.941  0.1309 -0.2086  0.1162
 4284W        W14544  10.634  10.526   1.430  0.0269  0.2244 -0.4704
 4285W        W14545   7.996  11.475   2.422  0.0881 -0.1657 -0.0278
 4286W        W14546   8.152   0.888   6.966 -0.3798  0.1366 -0.1237
 4287W        W14547  11.750   8.063   7.462  0.4180  0.1125  0.2304
 4288W        W14548   7.094  11.900   6.888  0.1747 -0.3530  0.0286
 4289W        W14549  11.715  10.421   1.972 -0.0160 -0.0873  0.1795
 4290W        W14550   4.228   0.914   0.291  0.1948 -0.0424  0.2203
 4291W        W14551  13.674  14.858   6.826 -0.1435 -0.1527  0.0531
 4292W        W14552   9.821  10.116   6.760  0.2667  0.0606  0.0156
 4293W        W14553   9.734  14.920   1.082  0.3643  0.1461 -0.2143
 4294W        W14554   6.658  10.116   6.833  0.0738  0.0697 -0.3549
 4295W        W14555  13.794  12.652   0.260  0.1121  0.2003 -0.0522
 4296W        W14556   8.226  13.968   1.890 -0.0830 -0.3263 -0.0387
 4297W        W14557   1.918   2.483   1.855  0.0085  0.1577 -0.0793
 4298W        W14558  10.653  15.924   7.737  0.0286 -0.0603  0.0203
 4299W        W14559   8.673  11.952   0.709  0.1493 -0.1012 -0.1523
 4300W        W14560  10.390   2.256   0.346  0.0989 -0.0350  0.0665
 4301W        W14561   8.042   8.608   1.741 -0.1776  0.1836  0.0838
 4302W        W14562  12.481   6.499   0.512 -0.0453 -0.5085 -0.1356
 4303W        W14563   8.814  10.777   7.809 -0.0547  0.0394  0.4439
 4304W        W14564   9.206   0.464   1.626 -0.0624  0.3005  0.0530
 4305W        W14565  13.979  15.201   0.997  0.2508  0.2360 -0.1623
 4306W        W14566  13.033  12.768   0.997  0.0804  0.0722  0.1650
 4307W        W14567   9.689  11.815   1.634 -0.0155  0.1079  0.0738
 4308W        W14568   6.069  11.398   2.332 -0.0827 -0.2198  0.2479
 4309W        W14569   5.787   8.700   7.871  0.1555  0.0495 -0.3596
 4310W        W14570   0.406  11.545   7.996  0.1172 -0.0409 -0.3322
 4311W        W14571  15.213  14.234   1.124 -0.2520 -0.0326  0.0320
 4312W        W14572   8.705  14.006   1.591 -0.1321  0.1752 -0.4665
 4313W        W14573  15.283   4.370   1.798  0.1045 -0.4296 -0.1454
 4314W        W14574   7.746  14.347   0.384 -0.1346  0.1930  0.0990
 4315W        W14575  14.258   5.611   7.477  0.0108  0.1958  0.0034
 4316W        W14576   6.718   9.573   1.076  0.1223 -0.0234  0.2799
 4317W        W14577  10.056  12.625   0.604  0.2605 -0.2438 -0.0133
 4318W        W14578  12.259  13.850   8.106 -0.2771  0.1519  0.3536
 4319W        W14579  15.500  16.519   0.381  0.0195  0.3173  0.1784
 4320W        W14580  13.185  10.031   0.860  0.0938 -0.0481 -0.0261
 4321W        W14581  13.364  15.944   0.120 -0.1774  0.3031 -0.5067
 4322W        W14582   8.460  14.371   8.417  0.3097 -0.0501  0.2473
 4323W        W14583   7.354  14.446   7.073  0.2707  0.0905  0.3680
 4324W        W14584   6.398  11.124   0.762 -0.1172  0.0312  0.0597
 4325W        W14585   2.847   3.295   1.040  0.0088  0.2769  0.3101
 4326W        W14586  10.146  10.568   1.441  0.1395 -0.1700 -0.0197
 4327W        W14587   4.399   9.516   0.811  0.1769  0.0209 -0.1343
 4328W        W14588   5.228   3.200   6.902 -0.0705  0.2578  0.0042
 4329W        W14589   6.341   9.947   7.975  0.2738  0.2339  0.2397
 4330W        W14590   7.507   8.212   6.484 -0.0013 -0.0447 -0.2045
 4331W        W14591  12.785  13.641   7.118  0.2858  0.1118 -0.3858
 4332W        W14592  13.351  11.386   6.927 -0.0170  0.0177  0.1951
 4333W        W14593   5.212  13.892   2.031  0.2810 -0.0229  0.2859
 4334W        W14594  10.412  16.282   2.335  0.2995 -0.0265 -0.1574
 4335W        W14595   3.748  14.307   8.352 -0.1766  0.0088  0.1221
 4336W        W14596   5.847   6.140   0.839  0.3185 -0.1114 -0.2079
 4337W        W14597  12.398  14.725   7.879 -0.2229 -0.1089 -0.1120
 4338W        W14598  11.104  12.235   1.776 -0.2472  0.1551 -0.0556
 4339W        W14599  11.117   8.981   1.905 -0.0740 -0.0125 -0.1051
 4340W        W14600   8.903  15.342   6.039  0.0514  0.0465  0.0158
 4341W        W14601   6.283  10.351   7.201 -0.1210  0.0252 -0.0680
 4342W        W14602  13.796  13.106   0.175  0.2493 -0.3591  0.1093
 4343W        W14603  11.569   7.406   7.142  0.0005  0.0523  0.3276
 4344W        W14604  11.564  13.973   8.619  0.0426 -0.0650  0.1061
 4345W        W14605   8.185  13.729   6.815 -0.3552  0.1415  0.1050
 4346W        W14606  14.389  10.878   1.041 -0.0921  0.2934  0.0956
 4347W        W14607   6.324  15.073   8.538 -0.1667 -0.3316  0.2871
 4348W        W14608   9.027  11.680   8.242 -0.2330  0.2695  0.3354
 4349W        W14609  10.171   3.058   1.572 -0.1282 -0.3268  0.0477
 4350W        W14610   4.908  14.148   6.658 -0.0608 -0.0491 -0.3440
 4351W        W14611   5.561  11.436   2.199  0.1018 -0.0585  0.2676
 4352W        W14612   8.391   9.185   1.832 -0.1339  0.3915 -0.2222
 4353W        W14613  15.780   6.302   1.822  0.0060  0.0533  0.1678
 4354W        W14614   3.683   1.615   1.339 -0.1591  0.0518 -0.2865
 4355W        W14615   8.804   9.956   6.690  0.1134  0.1804 -0.0775
 4356W        W14616   5.715  10.818   7.596 -0.2882  0.2127 -0.3819
 4357W        W14617  12.861  12.289   1.417  0.0336 -0.0066 -0.0027
 4358W        W14618   9.533   0.972   6.261 -0.0064  0.0371 -0.0808
 4359W        W14619   9.545   8.249   8.468  0.0901 -0.1040  0.3777
 4360W        W14620   5.491   8.885   8.227 -0.1452 -0.0812  0.1995
 4361W        W14621  16.015  13.863   8.224  0.0000 -0.0570 -0.1767
 4362W        W14622   2.411   2.873   1.092  0.2095 -0.0393 -0.1160
 4363W        W14623  11.421  12.603   8.090  0.1469  0.0727 -0.0378
 4364W        W14624   4.320  13.038   1.555 -0.3229 -0.1851 -0.5489
 4365W        W14625   1.594  13.916   1.829 -0.0629 -0.1241  0.0318
 4366W        W14626   6.116   9.244   1.721  0.3167 -0.0377 -0.0313
 4367W        W14627   9.247  14.981   7.862 -0.1560 -0.2928  0.0905
 4368W        W14628   7.405   0.272   8.211  0.0206 -0.2572  0.0066
 4369W        W14629   3.570  14.860   0.331 -0.1742 -0.3521 -0.0815
 4370W        W14630  11.074   1.180   0.847 -0.3334  0.0525 -0.2279
 4371W        W14631  15.319  11.931   1.461 -0.1122  0.0464 -0.1048
 4372W        W14632  11.724  11.341   6.499  0.1613  0.2278  0.0396
 4373W        W14633   8.380   8.538   6.730 -0.1390  0.1474  0.2648
 4374W        W14634  11.926   3.937   1.027 -0.0622  0.1464  0.2595
 4375W        W14635  11.766  12.195   0.482 -0.0014  0.0820  0.1554
 4376W        W14636  11.249  12.843   7.619 -0.0008  0.0472  0.0022
 4377W        W14637  13.967   5.369   0.557  0.2706  0.4904 -0.0895
 4378W        W14638   9.984  13.676   5.937  0.0137 -0.1117  0.1505
 4379W        W14639   9.807   4.731   7.907  0.0507 -0.1971 -0.0954
 4380W        W14640   7.234  13.149   6.063  0.2539  0.0486 -0.0184
 4381W        W14641  11.341   5.854   0.649  0.0320 -0.0040  0.2849
 4382W        W14642  13.565  14.986   0.724  0.0183 -0.0118 -0.2432
 4383W        W14643  13.483  12.323   7.118  0.2061 -0.2557 -0.2102
 4384W        W14644   7.075   9.629   8.641 -0.0070 -0.2202  0.0049
 4385W        W14645  14.801   0.567   0.776 -0.0650 -0.1121  0.0233
 4386W        W14646  11.852  15.102   2.421 -0.1403  0.1452  0.1530
 4387W        W14647   7.368   8.708   1.030  0.1199 -0.1286 -0.0928
 4388W        W14648   6.769  16.412   0.053 -0.1840  0.0222 -0.2677
 4389W        W14649   5.050   8.644   0.921  0.0788 -0.1365  0.0555
 4390W        W14650   7.403  14.930   8.435  0.2905  0.1002  0.0857
 4391W        W14651  10.905  10.903   0.513 -0.2368 -0.1509 -0.0890
 4392W        W14652   7.457  10.536   7.511  0.4167  0.0054  0.3281
 4393W        W14653  12.682  13.118   6.875  0.0547 -0.0204 -0.0906
 4394W        W14654   9.424  10.809   6.513  0.1597  0.0501 -0.0969
 4395W        W14655   6.098   8.865   8.242 -0.0149 -0.1505 -0.3538
 4396W        W14656   7.986  12.793   0.778  0.0562 -0.4820  0.0620
 4397W        W14657   3.504  11.189   8.170 -0.1629  0.1962  0.1607
 4398W        W14658  10.064  10.508   6.961  0.0145 -0.2520  0.6466
 4399W        W14659  10.085  14.547   6.235  0.2121  0.2012 -0.0263
 4400W        W14660  10.152  13.631   6.414  0.0327  0.1395 -0.3642
 4401W        W14661   4.760   9.468   6.386 -0.0411  0.0664  0.0560
 4402W        W14662  13.356  10.403   0.355 -0.2232 -0.0555  0.0488
 4403W        W14663   7.960   0.968   1.728 -0.1431 -0.3048 -0.0828
 4404W        W14664  12.629  15.476   6.017  0.2840 -0.1642 -0.3468
 4405W        W14665  11.067  10.127   7.976  0.2133  0.2094  0.0414
 4406W        W14666  10.085  10.876   7.350  0.3449  0.1786 -0.2290
 4407W        W14667   8.518   0.866   8.369  0.1317  0.0969  0.2523
 4408W        W14668   9.253  12.403   0.122 -0.1922 -0.3048 -0.1335
 4409W        W14669   8.933   8.946   7.748 -0.0459  0.1622  0.2606
 4410W        W14670  10.907  10.495   7.199 -0.1023 -0.3455 -0.3314
 4411W        W14671  13.929  12.320   1.369 -0.2178 -0.1867 -0.1623
 4412W        W14672   9.304  13.373   6.478 -0.0353  0.1950  0.0542
 4413W        W14673   5.017   8.745   1.556  0.0815 -0.0047  0.1933
 4414W        W14674   7.669  14.781   0.130  0.2226  0.1534  0.0964
 4415W        W14675   2.726   2.037   0.903  0.0263  0.1484  0.1775
 4416W        W14676  12.572  10.370   8.320  0.2107  0.1502 -0.2627
 4417W        W14677  11.836  15.298   1.959 -0.0021  0.1844 -0.1329
 4418W        W14678  10.721   1.974   6.921 -0.1159 -0.1621 -0.1578
 4419W        W14679   5.338  14.947   7.605 -0.2094  0.1892  0.0180
 4420W        W14680   5.701  14.811   0.315 -0.1001  0.0812  0.0446
 4421W        W14681   8.200  13.383   7.730 -0.1649 -0.1447  0.4149
 4422W        W14682  10.492   8.688   6.643 -0.0527  0.0439  0.0590
 4423W        W14683  10.058  15.367   0.977  0.0937 -0.1082 -0.0974
 4424W        W14684  11.695   6.986   0.347  0.1345 -0.0370 -0.0632
 4425W        W14685   6.369  12.905   1.702 -0.3323  0.0524  0.2515
 4426W        W14686   1.599   8.455   7.547  0.2290 -0.3023 -0.1249
 4427W        W14687  10.190   3.039   0.566  0.1375 -0.3412 -0.1434
 4428W        W14688   4.587  10.689   2.142 -0.1198 -0.0292  0.2271
 4429W        W14689  10.900  15.335   1.523 -0.3289  0.2607  0.3356
 4430W        W14690   9.680  15.020   7.103 -0.0670  0.3104 -0.3723
 4431W        W14691   3.843  15.272   8.576  0.2096  0.1962 -0.0036
 4432W        W14692   8.671  14.246   7.946  0.3170  0.0991 -0.0411
 4433W        W14693   6.326  13.369   0.096  0.1267  0.0451 -0.2680
 4434W        W14694   9.323   6.690   1.550  0.0754 -0.0541 -0.0572
 4435W        W14695  13.161  13.241   7.039 -0.0666 -0.1463 -0.0781
 4436W        W14696   7.982  14.772   0.566 -0.1049  0.1771 -0.1373
 4437W        W14697  10.452  11.206   0.654  0.1766  0.0262 -0.0972
 4438W        W14698   8.282  11.163   8.458 -0.4307  0.1343  0.0887
 4439W        W14699   8.465  10.100   1.264 -0.0967 -0.0307 -0.2312
 4440W        W14700   2.444   8.745   8.673 -0.2098 -0.2383 -0.0403
 4441W        W14701  14.817  15.687   1.528  0.3156 -0.2019 -0.1392
 4442W        W14702   7.664  12.498   6.873  0.2720 -0.0609  0.0444
 4443W        W14703   6.816   9.543   8.152 -0.0702 -0.1455  0.1674
 4444W        W14704   5.321   0.168   0.951 -0.1097  0.1520  0.1448
 4445W        W14705   4.596   0.842   2.007 -0.0126 -0.0210  0.1335
 4446W        W14706   4.851  11.227   8.019  0.1154 -0.2163  0.0144
 4447W        W14707   8.528   9.160   1.291 -0.0482 -0.0595 -0.0053
 4448W        W14708  12.788  14.459   6.405  0.0619 -0.3506 -0.1820
 4449W        W14709  10.105  11.047   6.877 -0.0716 -0.1585 -0.4669
 4450W        W14710   9.533  10.201   7.655 -0.0543  0.1611 -0.0194
 4451W        W14711   7.373  12.631   8.212  0.1202 -0.0698  0.0381
 4452W        W14712  10.336  11.583   8.562 -0.0697  0.0196  0.0738
 4453W        W14713   8.602   7.611   7.510 -0.1649  0.5153 -0.0469
 4454W        W14714   8.178   1.938   0.632  0.3520 -0.0869  0.1495
 4455W        W14715   4.380  15.032   1.764  0.0241 -0.0253  0.1972
 4456W        W14716   8.173  11.828   0.629  0.0433 -0.0824  0.1586
 4457W        W14717   9.684  12.351   6.604 -0.1129 -0.2254  0.1328
 4458W        W14718   2.926   9.635   8.515 -0.0066 -0.0915 -0.0716
 4459W        W14719   5.290  15.618   6.742  0.0255 -0.3622  0.0009
 4460W        W14720   9.971  15.410   0.222 -0.0028  0.1003  0.0144
 4461W        W14721  11.428  16.267   6.374  0.3498 -0.0943 -0.2788
 4462W        W14722   5.870  15.162   7.635 -0.1970 -0.0494 -0.0212
 4463W        W14723   3.498  15.108   0.996  0.0853  0.0076  0.1748
 4464W        W14724  10.594   9.517   0.263  0.0469 -0.1297  0.1281
 4465W        W14725  12.715  16.427   6.105 -0.0078 -0.0757 -0.4091
 4466W        W14726   9.038   6.889   7.668  0.0938 -0.2029  0.1182
 4467W        W14727   9.111  12.083   1.046 -0.0229  0.1883 -0.0301
 4468W        W14728   3.228   2.334   6.303 -0.2542 -0.3099 -0.1704
 4469W        W14729   3.502   0.526   7.885  0.1459 -0.3231 -0.1904
 4470W        W14730   6.519   8.871   0.979 -0.1418 -0.1639  0.1244
 4471W        W14731   5.149  12.035   0.304 -0.2046 -0.1080 -0.0991
 4472W        W14732  13.524  11.334   8.677 -0.3360 -0.3711 -0.3714
 4473W        W14733   7.196  12.855   0.794 -0.3285  0.0678 -0.1818
 4474W        W14734   7.645  12.392   8.631  0.0904 -0.0415 -0.1041
 4475W        W14735   8.094   1.937   6.179  0.2162 -0.0204 -0.2694
 4476W        W14736   9.232  12.462   7.508  0.1616  0.4141  0.4210
 4477W        W14737  14.162  10.325   6.904  0.4279  0.1433 -0.4407
 4478W        W14738   9.030  10.643   0.545 -0.1549  0.1415 -0.1019
 4479W        W14739   5.245   8.968   7.241  0.0506  0.0362  0.2936
 4480W        W14740  10.764   9.842   8.242  0.2091 -0.0306 -0.1270
 4481W        W14741   8.127   2.268   7.712  0.0301 -0.2573  0.4173
 4482W        W14742   0.062  11.526   1.735 -0.4355  0.2034 -0.3055
 4483W        W14743  15.457   8.573   1.180  0.0151  0.2321 -0.1733
 4484W        W14744   4.692  12.092   1.151  0.0715 -0.0630  0.0240
 4485W        W14745  13.388   9.910   1.305  0.0548  0.0430 -0.0470
 4486W        W14746  11.237  11.721   2.397 -0.3122  0.0018 -0.0034
 4487W        W14747   0.207   9.797   8.262 -0.0965  0.0228 -0.2049
 4488W        W14748   0.258   9.737   7.572 -0.3219  0.1395 -0.0078
 4489W        W14749  14.422  13.828   1.582 -0.1269  0.2446 -0.2125
 4490W        W14750  11.875  10.361   7.834 -0.1373  0.0063 -0.0346
 4491W        W14751  10.260  12.316   0.982 -0.0473 -0.2472 -0.1781
 4492W        W14752   5.715   7.852   0.827 -0.0401 -0.2258 -0.0972
 4493W        W14753  14.229   5.120   7.342 -0.0935  0.0397 -0.2333
 4494W        W14754  13.007  12.233   7.111  0.0601  0.1019  0.1019
 4495W        W14755  11.280   5.509   6.952  0.2619 -0.0351  0.2080
 4496W        W14756  14.687   9.350   2.592 -0.1118  0.1500  0.1384
 4497W        W14757   9.661  15.040   0.514 -0.1117  0.0874  0.1375
 4498W        W14758   9.068  16.378   6.754  0.1595 -0.0565 -0.0899
 4499W        W14759   4.821  11.864   7.999 -0.3141 -0.0720  0.2117
 4500W        W14760   9.634  11.109   0.093  0.1639  0.0106  0.3221
 4501W        W14761  14.122  16.248   6.398  0.0119 -0.1432 -0.0162
 4502W        W14762  11.846   0.858   1.879 -0.3828 -0.3535 -0.0250
 4503W        W14763   6.668   7.955   8.321 -0.0151  0.2320 -0.0618
 4504W        W14764  14.118   0.129   1.798  0.4290 -0.2933  0.1065
 4505W        W14765  13.834   9.586   7.251 -0.0851 -0.0739  0.2744
 4506W        W14766   7.541  13.220   7.295  0.2492 -0.1979  0.0270
 4507W        W14767  10.363  11.955   8.285  0.3168  0.0485  0.3701
 4508W        W14768   8.662  12.060   7.417 -0.0789  0.0895  0.0935
 4509W        W14769  15.095   6.276   0.244  0.1283 -0.2044  0.0247
 4510W        W14770  14.443   8.294   0.461  0.1539  0.0177 -0.1995
 4511W        W14771  12.816   9.968   8.023 -0.0927  0.0921 -0.3321
 4512W        W14772  11.796  14.718   7.128 -0.0895 -0.0037  0.0403
 4513W        W14773   9.293  15.590   1.634  0.3154  0.1921 -0.1785
 4514W        W14774   9.441  11.046   0.640  0.1562  0.0710  0.2170
 4515W        W14775   2.090   0.743   1.419 -0.0156 -0.0508 -0.0674
 4516W        W14776   3.695  12.652   0.305  0.1117 -0.1114  0.1003
 4517W        W14777  12.652  10.810   8.618 -0.1320  0.0544 -0.0064
 4518W        W14778   7.470  10.822   0.379 -0.1487  0.0846  0.1171
 4519W        W14779  11.019   4.349   1.081  0.3507 -0.0750  0.0140
 4520W        W14780  12.517  12.043   1.164  0.0981  0.1302 -0.0355
 4521W        W14781  10.606  11.144   6.650  0.0098  0.0288 -0.1237
 4522W        W14782  14.945  10.539   7.496 -0.3324  0.0880  0.4646
 4523W        W14783   7.853   1.454   1.441  0.1204  0.0552  0.1557
 4524W        W14784  15.819   7.718   0.672  0.0022  0.0881 -0.1642
 4525W        W14785  13.125   7.745   0.582 -0.1550  0.2331  0.1329
 4526W        W14786  12.681  15.584   2.351 -0.2582 -0.1337  0.0845
 4527W        W14787  12.257   8.355   6.471  0.1238  0.0941 -0.0090
 4528W        W14788   6.139   8.075   0.977 -0.1640 -0.0451 -0.1382
 4529W        W14789  11.338   8.915   7.894  0.1431  0.1141 -0.2567
 4530W        W14790  14.092   4.282   0.052 -0.2423 -0.3587  0.0913
 4531W        W14791   3.387   9.518   0.080 -0.3546 -0.1122 -0.0360
 4532W        W14792  13.996  13.974   1.814  0.2086  0.2029  0.0511
 4533W        W14793  15.253  11.831   0.678  0.1693  0.1028  0.1013
 4534W        W14794   0.063  12.521   1.499 -0.1376  0.1913 -0.0968
 4535W        W14795   0.448  11.510   8.594  0.1613 -0.2330 -0.0691
 4536W        W14796  13.849  14.236   6.673  0.1625  0.4354 -0.1261
 4537W        W14797  15.578  11.113   0.333  0.1420  0.0732  0.0659
 4538W        W14798   6.259  10.656   0.181 -0.0647 -0.1840  0.1916
 4539W        W14799   3.441  11.397   8.592  0.1590 -0.0855 -0.0994
 4540W        W14800  12.838  16.401   1.497  0.0433  0.1387  0.0535
 4541W        W14801   7.878   8.409   0.383 -0.2074 -0.1963  0.1610
 4542W        W14802  15.676   0.527   6.524 -0.2699  0.1945 -0.1141
 4543W        W14803  13.701   4.885   1.816 -0.4579 -0.2451  0.2054
 4544W        W14804  15.516   9.916   0.698 -0.3475 -0.1819  0.0301
 4545W        W14805  10.642  13.770   6.421  0.2726 -0.0477 -0.0220
 4546W        W14806  12.586  11.203   6.591  0.0504 -0.0744 -0.0276
 4547W        W14807   7.614   8.226   0.988 -0.1871  0.1065  0.2390
 4548W        W14808   6.178  13.767   0.387  0.3158  0.4107  0.0782
 4549W        W14809   6.078  16.262   1.062  0.0425 -0.0445  0.1472
 4550W        W14810   2.005  13.354   7.127 -0.0150 -0.0342 -0.0393
 4551W        W14811   9.513   6.019   6.884  0.2420  0.3302 -0.1584
 4552W        W14812   6.137  13.499   7.507 -0.1685  0.0036 -0.0118
 4553W        W14813   1.663  10.295   0.122  0.0001  0.0277 -0.1882
 4554W        W14814   0.779  13.416   2.200  0.3876  0.0086 -0.0837
 4555W        W14815  12.821  13.214   1.626  0.1119  0.3045 -0.1415
 4556W        W14816  15.457   9.170   6.993 -0.1603 -0.2026 -0.0019
 4557W        W14817  12.094   2.161   6.943 -0.1181  0.2815 -0.1874
 4558W        W14818   7.665  14.438   6.657  0.3175 -0.1442  0.0114
 4559W        W14819  13.755  12.395   8.515 -0.0791  0.0474  0.1296
 4560W        W14820  14.554   6.676   8.212  0.1697  0.2904 -0.4975
 4561W        W14821   3.583   7.336   8.310  0.1481 -0.2536 -0.0684
 4562W        W14822  11.099  13.246   7.799 -0.3928 -0.1224  0.1557
 4563W        W14823  13.972   6.915   0.581  0.1559  0.0642  0.1531
 4564W        W14824   9.833   6.540   8.509  0.0774  0.0632 -0.0770
 4565W        W14825   6.125   0.424   7.098 -0.1019 -0.2562  0.0028
 4566W        W14826  13.274   1.050   1.011  0.0350  0.3074 -0.3657
 4567W        W14827   9.901  12.135   7.970 -0.1313  0.3188  0.0583
 4568W        W14828  12.086  15.515   6.098  0.3885 -0.1078 -0.0081
 4569W        W14829   5.460   6.467   0.914 -0.2727 -0.0647  0.0729
 4570W        W14830  11.226   5.070   0.942 -0.3564  0.3378  0.3167
 4571W        W14831   5.446   0.127   0.256 -0.1002  0.0433  0.0660
 4572W        W14832  15.819  13.762   0.136  0.2225 -0.0799 -0.0070
 4573W        W14833  12.972  11.894   1.131 -0.0769 -0.0740 -0.1041
 4574W        W14834  14.812  14.660   1.176 -0.0025  0.1546  0.0837
 4575W        W14835  10.435   6.797   3.020 -0.2456  0.1367  0.3202
 4576W        W14836  12.778   9.020   0.866 -0.0576  0.1562  0.2262
 4577W        W14837  15.057  14.969   7.121 -0.0832 -0.1177  0.0238
 4578W        W14838  16.428  10.789   8.558  0.0492  0.3058 -0.0512
 4579W        W14839  13.583   8.310   0.215 -0.0904 -0.1753 -0.1264
 4580W        W14840   8.614   9.607   6.332 -0.3556 -0.0456 -0.2221
 4581W        W14841   7.800   9.666   6.690  0.2213  0.1079 -0.2660
 4582W        W14842  15.941   4.004   0.246  0.0655  0.1774  0.0489
 4583W        W14843   8.080   7.135   0.991 -0.2539  0.0507 -0.3522
 4584W        W14844  15.311   5.353   7.982 -0.1461 -0.1607 -0.5497
 4585W        W14845  15.437  10.633   8.334  0.2839  0.0941 -0.0290
 4586W        W14846   7.708  15.933   7.765  0.3106  0.0080  0.1902
 4587W        W14847  16.436  13.483   2.135  0.0551  0.0424 -0.1201
 4588W        W14848  16.441  16.049   6.879 -0.2261  0.0876 -0.0418
 4589W        W14849  14.639   8.582   6.917 -0.1293  0.2137  0.0749
 4590W        W14850   8.927  12.587   1.339 -0.0428  0.2575 -0.2321
 4591W        W14851   7.304  11.670   0.940  0.0490  0.2492  0.2917
 4592W        W14852   0.082  11.875   0.122 -0.2605  0.1672 -0.0364
 4593W        W14853  14.832  11.354   6.667  0.0865 -0.0505  0.0922
 4594W        W14854  16.265   9.313   8.348 -0.0632  0.1722 -0.1159
 4595W        W14855  15.216  14.658   0.782  0.0922  0.0412 -0.1850
 4596W        W14856  15.337  12.102   8.381  0.4122  0.1862 -0.0172
 4597W        W14857  13.054  13.706   2.014  0.3161 -0.2849  0.0104
 4598W        W14858  10.102   9.883   7.245  0.1300 -0.1518  0.1060
 4599W        W14859  11.437   1.147   6.867 -0.0280  0.0524  0.1585
 4600W        W14860  12.905   6.638   8.551  0.1028  0.0448 -0.0591
 4601W        W14861  10.527   9.913   7.811  0.1967  0.2304  0.0509
 4602W        W14862   6.895  12.492   0.503  0.3791 -0.4112  0.0150
 4603W        W14863  13.852   2.515   2.042  0.1422 -0.0684 -0.0428
 4604W        W14864  14.906   9.939   2.050  0.2274  0.0525  0.0851
 4605W        W14865  11.796  14.738   8.627 -0.2855 -0.0751  0.2643
 4606W        W14866  11.306  10.296   0.337 -0.0866 -0.1987  0.1670
 4607W        W14867  13.221  15.154   6.832  0.0105  0.1165  0.2140
 4608W        W14868  14.052  13.052   6.510 -0.0777 -0.0531  0.1333
 4609W        W14869  11.420  11.933   7.094  0.1521 -0.3685 -0.0609
 4610W        W14870  10.379   1.987   7.298  0.0692  0.3025 -0.2659
 4611W        W14871   8.517  12.099   6.901 -0.0966  0.1790 -0.0977
 4612W        W14872   9.315   9.106   1.196 -0.1899  0.1290 -0.0964
 4613W        W14873  12.168  12.952   5.969 -0.0710  0.1252  0.0960
 4614W        W14874  10.085   8.287   8.398  0.0518 -0.1612  0.2917
 4615W        W14875  13.536  13.232   0.618  0.1104 -0.2161  0.2550
 4616W        W14876   0.115   0.256   1.869  0.3206 -0.1213 -0.0860
 4617W        W14877   0.090  14.162   6.935 -0.2475  0.3774 -0.1347
 4618W        W14878  12.345  10.178   7.920 -0.0666 -0.2110  0.2697
 4619W        W14879   1.164  12.294   1.899 -0.2494  0.1706  0.2797
 4620W        W14880  14.546  10.245   8.311 -0.0788  0.0542 -0.1289
 4621W        W14881  10.267   8.965   1.877  0.1537 -0.2580  0.1682
 4622W        W14882  10.626  10.427   7.971 -0.0281 -0.1428  0.2978
 4623W        W14883   0.950  12.994   7.332 -0.3414  0.0182  0.0817
 4624W        W14884  12.260  11.185   0.998  0.0554  0.0974 -0.0937
 4625W        W14885  12.755  14.777   8.166 -0.1121 -0.1861 -0.3710
 4626W        W14886  11.950  14.922   0.410  0.2020  0.0968 -0.3957
 4627W        W14887  12.714   9.993   8.661  0.0041  0.0629  0.1351
 4628W        W14888  12.580   0.128   1.097  0.1101  0.3473  0.0798
 4629W        W14889   7.236   0.886   6.992  0.2419 -0.0780  0.0442
 4630W        W14890  10.291  11.175   8.159 -0.1534 -0.1688 -0.1432
 4631W        W14891  14.612   7.227   7.999  0.0310 -0.2994  0.0430
 4632W        W14892  11.293  11.147   6.760  0.1132  0.3154 -0.3211
 4633W        W14893  11.754   9.935   7.202  0.4805  0.2258 -0.1184
 4634W        W14894   1.745  13.961   1.335 -0.1216 -0.0756  0.0127
 4635W        W14895  11.194   3.266   8.255  0.0913  0.2236 -0.1114
 4636W        W14896  13.534  14.449   6.283 -0.1741 -0.1703  0.0532
 4637W        W14897   7.316   8.640   8.118  0.1291  0.1388  0.4540
 4638W        W14898  13.371   0.979   7.012 -0.0184 -0.1418  0.0070
 4639W        W14899  11.025  10.994   6.333  0.0487  0.2803  0.1866
 4640W        W14900   2.832  12.809   7.918  0.0868  0.0196 -0.1899
 4641W        W14901  15.065   8.700   0.931 -0.0651  0.1004  0.0069
 4642W        W14902   7.121  10.915   0.723  0.0562 -0.0390 -0.2471
 4643W        W14903  11.854  15.512   8.375 -0.2648 -0.2139  0.1374
 4644W        W14904  13.116   4.385   2.216 -0.2125  0.4861  0.0395
 4645W        W14905  12.673   7.227   6.647  0.2377 -0.0548 -0.1343
 4646W        W14906   5.244  16.426   0.575 -0.0588  0.0482 -0.2786
 4647W        W14907   7.436   7.082   7.964  0.1495  0.0065 -0.1052
 4648W        W14908  11.896  14.912   7.648 -0.0524 -0.2311  0.1407
 4649W        W14909   8.080   7.701   0.836 -0.0783  0.4030  0.0108
 4650W        W14910   0.555  16.025   0.799 -0.1838 -0.0589 -0.2143
 4651W        W14911  15.764  12.423   8.233  0.0088  0.0688  0.3654
 4652W        W14912  11.267  11.209   8.296 -0.1052 -0.0321 -0.1892
 4653W        W14913   9.071   3.658   0.206  0.0786 -0.1114 -0.1603
 4654W        W14914  11.326   8.570   0.079 -0.1523 -0.3446 -0.0525
 4655W        W14915   7.440  16.304   7.177 -0.2421 -0.0955 -0.0469
 4656W        W14916  16.015  10.968   0.093  0.2868 -0.2302 -0.0733
 4657W        W14917   1.431   7.790   1.093  0.3015  0.0280 -0.2824
 4658W        W14918   9.227   8.069   1.921 -0.0502  0.0982 -0.0448
 4659W        W14919  13.105  15.115   8.499 -0.1511 -0.2101 -0.3275
 4660W        W14920   2.777  15.383   1.770 -0.0416 -0.0562  0.0045
 4661W        W14921  14.618  12.667   8.545 -0.1246 -0.0950  0.1163
 4662W        W14922  10.966  11.067   1.009  0.1506  0.1008  0.2136
 4663W        W14923  13.379   5.819   8.463  0.1388  0.0345  0.1223
 4664W        W14924  10.693  14.511   1.870 -0.2007 -0.1134  0.1318
 4665W        W14925  12.635  11.487   1.031 -0.2191 -0.1378  0.3768
 4666W        W14926   4.043  12.758   1.157 -0.1562 -0.1910 -0.1971
 4667W        W14927   9.596   9.445   0.939  0.2327 -0.0738 -0.0786
 4668W        W14928   6.580  12.566   7.555 -0.0954 -0.2185  0.2078
 4669W        W14929  16.219   8.865   1.544 -0.0877 -0.2304  0.0025
 4670W        W14930  15.212  15.207   7.505  0.0620 -0.1082  0.1651
 4671W        W14931   6.268  11.024   8.107  0.1631 -0.1372 -0.0366
 4672W        W14932   5.840   7.533   8.039  0.0489  0.1754  0.0000
 4673W        W14933  12.127  11.443   0.152 -0.1003  0.1215  0.1100
 4674W        W14934  13.080  11.910   2.469 -0.2107  0.1233  0.1959
 4675W        W14935  13.821  11.957   8.332 -0.0985 -0.0546 -0.0579
 4676W        W14936   5.444   9.620   0.492 -0.4481  0.0534  0.0137
 4677W        W14937  11.572  10.415   0.743 -0.2402 -0.0520 -0.1147
 4678W        W14938  13.145  12.292   0.838 -0.2161 -0.1037 -0.0882
 4679W        W14939  12.615  13.002   8.284  0.0787  0.0898 -0.2642
 4680W        W14940   1.340  11.418   0.743  0.3072 -0.3596 -0.1842
 4681W        W14941  13.816  14.401   1.521 -0.0268 -0.0463  0.2210
 4682W        W14942  11.402  11.405   6.158  0.0376 -0.0356  0.2375
 4683W        W14943  11.233  11.047   7.821 -0.1060 -0.0138  0.2118
 4684W        W14944  10.374  12.921   8.277 -0.1114  0.0929 -0.1637
 4685W        W14945  14.658   9.650   7.227 -0.0251  0.1386 -0.0988
 4686W        W14946  11.179  13.231   2.482  0.0845 -0.0802 -0.1608
 4687W        W14947  12.449   9.558   0.079  0.3245  0.0975  0.0444
 4688W        W14948  14.423  14.121   2.059 -0.3583  0.1982 -0.2172
 4689W        W14949  15.543  16.211   6.450 -0.3413  0.1040 -0.0179
 4690W        W14950  11.666  15.245   7.983 -0.1766 -0.2945 -0.0129
 4691W        W14951  14.807  16.569   1.292 -0.1188 -0.2259 -0.1052
 4692W        W14952   0.621  10.454   6.704 -0.0580 -0.0827 -0.3370
 4693W        W14953   0.871  11.537   8.195 -0.1315  0.1692  0.1888
 4694W        W14954  14.439  14.109   8.065 -0.0310 -0.2645 -0.1688
 4695W        W14955   4.522  13.033   0.278 -0.0071  0.0093 -0.0788
 4696W        W14956  10.600  12.794   0.810 -0.2079  0.2409 -0.3042
 4697W        W14957   1.496  14.817   8.460 -0.1281 -0.2448  0.3436
 4698W        W14958  13.197   8.763   0.932 -0.1764 -0.1565  0.0306
 4699W        W14959   0.560  10.050   1.600 -0.2745 -0.1801 -0.4483
 4700W        W14960   7.403  13.000   7.798  0.0734  0.1947 -0.0028
 4701W        W14961  13.213   4.771   6.092 -0.0171  0.1272 -0.1394
 4702W        W14962  16.466   9.955   8.635  0.0660  0.0958  0.1133
 4703W        W14963  13.876  16.381   1.426  0.3104  0.0278 -0.1706
 4704W        W14964   6.605  12.733   1.316 -0.1631  0.1634 -0.2961
 4705W        W14965   2.678   7.639   0.394 -0.2618  0.5137  0.3327
 4706W        W14966   3.450   9.818   6.782  0.0762  0.3289  0.1098
 4707W        W14967  12.366  11.669   8.108 -0.0215  0.2739  0.1453
 4708W        W14968  13.824  10.369   7.527  0.2665  0.0701 -0.0396
 4709W        W14969   1.332   4.912   7.749  0.0039 -0.0060  0.1727
 4710W        W14970  13.234  14.346   1.078  0.5333  0.0194  0.0248
 4711W        W14971  13.644  13.427   7.203  0.1720 -0.3916 -0.0567
 4712W        W14972   1.322   5.390   7.545 -0.0362 -0.1321  0.2075
 4713W        W14973  11.756   8.932   8.184  0.1292  0.1306 -0.1263
 4714W        W14974   0.257  13.515   1.336 -0.1737  0.1086  0.0178
 4715W        W14975   4.529   8.975   0.623 -0.1609  0.1956  0.0080
 4716W        W14976  15.508  16.299   1.837 -0.0385 -0.4716 -0.0775
 4717W        W14977  10.855   2.285   8.257  0.2662 -0.0320 -0.1841
 4718W        W14978  10.667  14.168   6.736 -0.0898 -0.2737 -0.0979
 4719W        W14979  14.009  10.832   7.614  0.3072  0.0935  0.0787
 4720W        W14980  15.621   0.553   0.221 -0.2593  0.0598 -0.1776
 4721W        W14981   1.498  13.024   1.651  0.1613  0.2233 -0.1842
 4722W        W14982   2.416  16.171   1.280  0.1222 -0.0977  0.3242
 4723W        W14983   5.594   6.170   1.787  0.2613 -0.0620  0.1784
 4724W        W14984  14.629  11.930   0.625  0.1523  0.1971  0.3233
 4725W        W14985  13.417  11.469   1.053  0.0643 -0.0372 -0.0426
 4726W        W14986  10.178   3.318   7.372 -0.2364  0.0919 -0.0346
 4727W        W14987   3.488   9.191   1.900 -0.0311  0.0614 -0.2072
 4728W        W14988  12.596   7.498   7.432  0.2496  0.0601  0.3600
 4729W        W14989   0.740  15.311   8.315 -0.4500  0.3582  0.0940
 4730W        W14990   5.090  12.880   0.430 -0.2865  0.0089  0.2818
 4731W        W14991   2.375  13.311   1.367 -0.2431  0.1281 -0.4134
 4732W        W14992   1.110  10.260   0.868 -0.1868  0.3389  0.2367
 4733W        W14993   8.765  12.109   8.488 -0.0292  0.1963  0.0731
 4734W        W14994  16.277  11.200   1.827  0.1278  0.3120  0.1471
 4735W        W14995  13.061   6.306   8.097 -0.0471 -0.3007  0.1072
 4736W        W14996   0.410   3.936   7.531  0.1285 -0.1521  0.0258
 4737W        W14997   1.637  12.268   8.081 -0.3978  0.0276 -0.0881
 4738W        W14998   8.216  13.911   1.113 -0.3730 -0.3173  0.1769
 4739W        W14999   0.032  13.183   1.792  0.2471  0.2974  0.0988
 4740W        W15000  13.579  10.443   8.569 -0.1709  0.1987  0.0438
 4741W        W15001  12.120  14.898   1.938 -0.2687 -0.2485 -0.0076
 4742W        W15002  13.771  10.199   8.082  0.1456 -0.0764  0.2303
 4743W        W15003  15.329   0.931   2.743 -0.1365  0.0393 -0.2863
 4744W        W15004   7.703  15.953   2.084 -0.2138 -0.2010 -0.2379
 4745W        W15005  14.941  14.525   7.337  0.0730 -0.2981  0.0671
 4746W        W15006  14.798  15.964   8.087  0.0481  0.0008  0.0383
 4747W        W15007  13.816   4.439   7.416  0.0988 -0.0332 -0.2737
 4748W        W15008   0.040  11.249   6.617 -0.0529 -0.1262  0.1823
 4749W        W15009  10.704  15.117   1.980  0.1000 -0.1184  0.0324
 4750W        W15010  12.150  12.613   1.823  0.0863 -0.1705  0.0966
 4751W        W15011   4.001   8.534   0.430 -0.1378 -0.4087  0.2220
 4752W        W15012  16.036  16.312   0.820 -0.1292 -0.2253  0.0140
 4753W        W15013   8.617   0.074   6.858 -0.0810  0.1846 -0.0375
 4754W        W15014  14.757  11.435   2.130 -0.1853  0.0988  0.3766
 4755W        W15015  12.440  12.035   1.634 -0.2131  0.1908  0.0067
 4756W        W15016  15.338   0.812   1.759  0.1503  0.0030 -0.1046
 4757W        W15017  13.721  15.494   1.594  0.1211  0.2095 -0.1408
 4758W        W15018  16.511  12.285   0.989 -0.1099  0.1271  0.0962
 4759W        W15019  16.008   0.307   7.979  0.3621  0.1935  0.1787
 4760W        W15020  12.725   9.491   1.595  0.1338  0.1926 -0.1630
 4761W        W15021  15.479  14.643   8.058 -0.1314  0.1147 -0.0569
 4762W        W15022   2.552   1.079   1.139  0.3020 -0.0477  0.1091
 4763W        W15023  13.955  15.175   2.004  0.0786 -0.1952  0.3565
 4764W        W15024   0.727  13.456   0.404 -0.2496 -0.0092  0.1177
 4765W        W15025  13.612   5.321   8.356 -0.2883 -0.3071 -0.1397
 4766W        W15026   1.718  12.570   2.564  0.2021 -0.3641 -0.4893
 4767W        W15027   0.351   9.206   1.289  0.0088  0.1458 -0.1801
 4768W        W15028  15.965   9.589   6.279  0.0540 -0.0954 -0.1923
 4769W        W15029  10.821  13.479   6.816 -0.2932 -0.1062  0.1122
 4770W        W15030  14.466   5.809   7.010  0.0135  0.2327 -0.1642
 4771W        W15031  15.438   9.650   7.118  0.3951 -0.0853  0.1210
 4772W        W15032  10.383  11.192   7.669 -0.1304  0.0480  0.1593
 4773W        W15033   1.473   7.506   6.807  0.3327  0.1103 -0.0470
 4774W        W15034  14.914   9.769   0.751  0.1134 -0.1778 -0.2445
 4775W        W15035  10.317  15.728   0.027 -0.0692 -0.0624 -0.2267
 4776W        W15036  14.628  11.837   8.434  0.2371 -0.0693 -0.2273
 4777W        W15037   5.614  14.451   1.628  0.1710 -0.0232  0.0270
 4778W        W15038  12.028   9.288   8.497 -0.0126  0.0163  0.0333
 4779W        W15039  14.035  13.465   8.649  0.1787  0.0249 -0.0263
 4780W        W15040   6.353   7.685   6.860  0.2543 -0.1448 -0.1119
 4781W        W15041   8.188   6.920   2.154 -0.1905  0.1635  0.2305
 4782W        W15042  16.298  14.208   1.697 -0.0130 -0.0303  0.2123
 4783W        W15043  15.362  11.282   0.841 -0.0342 -0.0626  0.0192
 4784W        W15044  12.993   8.346   7.597 -0.1110 -0.1039 -0.3039
 4785W        W15045   0.311   3.357   1.306 -0.5360  0.0285 -0.2911
 4786W        W15046   0.811   8.481   0.908 -0.1196 -0.0144 -0.0744
 4787W        W15047  13.608  15.961   1.459 -0.1450  0.2625 -0.1147
 4788W        W15048  13.199  11.723   1.539 -0.0756 -0.0610  0.1190
 4789W        W15049  14.056   7.459   8.008 -0.2351  0.0995 -0.2114
 4790W        W15050  12.799   9.460   7.994  0.0813 -0.0483  0.2873
 4791W        W15051  13.645   0.873   1.497  0.2526  0.1471 -0.1810
 4792W        W15052  16.102   0.528   0.167 -0.1098  0.2117 -0.4522
 4793W        W15053  14.927  11.013   1.038 -0.2170  0.0768  0.1211
 4794W        W15054  15.196   7.127   2.355  0.0622 -0.0626 -0.0457
 4795W        W15055   3.768   4.003   8.671  0.0576  0.1194 -0.0388
 4796W        W15056   2.746   7.510   8.542 -0.0049 -0.1479 -0.4780
 4797W        W15057  10.619  11.566   7.977  0.0182  0.2004  0.2190
 4798W        W15058  13.646   1.415   8.239 -0.0359  0.2428  0.2201
 4799W        W15059   0.612  11.731   0.368  0.2188 -0.2936  0.3779
 4800W        W15060  14.617   6.641   1.688  0.0116  0.1346  0.1125
 4801W        W15061   9.752   8.091   1.956 -0.1110  0.2095  0.1620
 4802W        W15062  16.105   9.766   0.214  0.1820  0.1435 -0.2299
 4803W        W15063  12.587  13.499   2.085 -0.1324  0.2025  0.2256
 4804W        W15064  15.863  12.743   1.893 -0.2198  0.2491 -0.0856
 4805W        W15065  11.657   2.549   8.086 -0.1058  0.2545 -0.0095
 4806W        W15066  11.093   1.093   1.384 -0.1140 -0.1829 -0.1681
 4807W        W15067  15.851   8.438   1.896  0.1691  0.2707  0.2764
 4808W        W15068   8.055  15.197   1.467 -0.1783 -0.0329 -0.1149
 4809W        W15069  14.002  16.252   7.835  0.0969  0.2035  0.2202
 4810W        W15070   1.680  12.052   0.350 -0.1447 -0.1783 -0.1573
 4811W        W15071   0.415  10.414   0.250 -0.0581 -0.1101  0.0421
 4812W        W15072   5.885  15.646   2.158 -0.2723  0.1424  0.2216
 4813W        W15073  14.308   9.045   0.913 -0.0609  0.2656 -0.1361
 4814W        W15074  14.626   5.406   8.230 -0.0142 -0.0940  0.1810
 4815W        W15075   9.785  11.806   7.238  0.1984 -0.0875  0.0031
 4816W        W15076   0.191   8.363   1.591  0.0433  0.1596  0.1294
 4817W        W15077   2.445  11.194   7.319 -0.2161 -0.4572 -0.0042
 4818W        W15078   0.235  10.561   0.884  0.1205  0.0743  0.1716
 4819W        W15079  13.593   0.808   0.707  0.2128 -0.1605 -0.0355
 4820W        W15080   9.538  16.168   0.529  0.2466  0.2043  0.2455
 4821W        W15081   9.212   6.383   2.060  0.0873 -0.2227 -0.1916
 4822W        W15082  11.887  14.284   7.354 -0.0412 -0.0609  0.2054
 4823W        W15083   4.181  15.462   8.201  0.5534 -0.0055 -0.2715
 4824W        W15084  16.451  11.534   8.004  0.0819 -0.0941 -0.1206
 4825W        W15085   1.529  14.446   7.580  0.1948  0.2342 -0.1482
 4826W        W15086  10.953  13.543   1.285  0.1663 -0.0383  0.1861
 4827W        W15087  14.722   9.991   7.621 -0.1539  0.0891  0.2917
 4828W        W15088  12.326  14.654   7.371 -0.0580  0.0311  0.1642
 4829W        W15089  12.509  14.120   7.129 -0.0166 -0.0504  0.0564
 4830W        W15090  13.405  12.041   7.524  0.1972 -0.0910  0.0417
 4831W        W15091  14.089   2.379   6.923  0.0704  0.2280  0.1667
 4832W        W15092   4.727   9.832   6.799  0.0840 -0.0707  0.1407
 4833W        W15093   1.372   6.109   1.046  0.0495 -0.0012  0.1506
 4834W        W15094  16.438  14.709   1.499  0.0796  0.0711 -0.0105
 4835W        W15095   1.761  13.352   1.425 -0.0092  0.2972 -0.0472
 4836W        W15096   4.151  12.634   1.805 -0.2157  0.0564 -0.2121
 4837W        W15097  15.894   4.724   8.289  0.0005 -0.0260 -0.0209
 4838W        W15098   2.800   9.994   1.546  0.2870 -0.1784 -0.1293
 4839W        W15099  15.783  15.179   8.173 -0.1483 -0.1569 -0.2087
 4840W        W15100   3.294  14.570   8.480  0.4442 -0.1868 -0.0913
 4841W        W15101   1.655  16.508   7.844 -0.1108 -0.0232 -0.0494
 4842W        W15102  10.531  14.985   6.692 -0.2963  0.3762  0.0472
 4843W        W15103   2.606  11.664   7.076 -0.1599  0.0918 -0.0318
 4844W        W15104  14.389  13.037   8.131 -0.0339  0.1656 -0.1001
 4845W        W15105   6.479   5.395   7.231 -0.0627  0.3600 -0.1455
 4846W        W15106   1.085  14.271   7.898 -0.0085  0.1636  0.1335
 4847W        W15107   2.758  15.617   2.295 -0.2285  0.1041 -0.0117
 4848W        W15108   6.207  14.542   7.685  0.0519  0.2082 -0.0760
 4849W        W15109  11.578   1.864   1.134 -0.1873 -0.0596 -0.1331
 4850W        W15110   5.536  15.780   1.410  0.2966  0.2037  0.0027
 4851W        W15111   5.931  10.131   1.326 -0.2902  0.3105  0.1161
 4852W        W15112  13.261  16.209   1.905  0.1445  0.2508  0.1829
 4853W        W15113   4.665  14.792   6.172  0.0075  0.3338  0.1513
 4854W        W15114   4.001   2.252   8.196  0.1291 -0.1583 -0.2280
 4855W        W15115   5.915  11.058   0.360 -0.1705 -0.1006  0.1331
 4856W        W15116   4.003  15.075   1.058 -0.1560  0.1356  0.0093
 4857W        W15117   2.447  15.405   2.668 -0.1859  0.2103 -0.1661
 4858W        W15118  15.436  13.214   0.130  0.1463 -0.1449  0.1175
 4859W        W15119   2.200   1.593   7.139 -0.0640 -0.1683 -0.0996
 4860W        W15120  13.180  12.900   0.319  0.1545 -0.1046 -0.2153
 4861W        W15121   2.856  12.505   0.953 -0.0988 -0.1301 -0.2236
 4862W        W15122   5.412  13.961   1.543 -0.0334 -0.1531 -0.3099
 4863W        W15123   0.647   4.529   6.858  0.2280  0.1733 -0.2111
 4864W        W15124   7.683   2.016   7.369  0.0473  0.1256  0.1725
 4865W        W15125  15.117   3.006   2.122 -0.1577  0.2035 -0.0736
 4866W        W15126   5.020  12.317   6.695  0.0158  0.2641  0.0334
 4867W        W15127  13.697  14.560   8.605  0.1514 -0.1473 -0.3432
 4868W        W15128  13.668  13.705   0.849  0.0938  0.1591  0.0763
 4869W        W15129   1.033  14.584   7.545 -0.0070 -0.1644 -0.2564
 4870W        W15130   8.907   0.637   2.177 -0.0817  0.1952  0.1336
 4871W        W15131   4.586   0.228   1.167  0.2968  0.3818 -0.0145
 4872W        W15132   1.218   0.058   7.975  0.0921 -0.2260 -0.1969
 4873W        W15133   5.054  10.014   7.507  0.0958 -0.1576 -0.4190
 4874W        W15134   4.397   9.488   0.314  0.1943 -0.1509  0.3989
 4875W        W15135   2.788  12.590   7.114  0.1075  0.0741  0.2431
 4876W        W15136  14.068   3.764   1.383  0.0625 -0.2804  0.0643
 4877W        W15137   4.211  12.613   2.391  0.3068 -0.0357 -0.2613
 4878W        W15138   0.277   0.199   7.261 -0.2653 -0.0990  0.1879
 4879W        W15139  14.830  14.292   0.567  0.2355  0.1819 -0.1617
 4880W        W15140   3.474  14.933   1.894  0.0916  0.1557 -0.0549
 4881W        W15141   3.244  15.286   8.207  0.1482  0.1263  0.0969
 4882W        W15142   8.196   3.559   7.396  0.0674  0.2938 -0.1990
 4883W        W15143   4.358  14.679   0.455  0.0580  0.1779  0.0402
 4884W        W15144  12.083   7.306   0.241  0.1753  0.2350 -0.1729
 4885W        W15145   2.446  14.065   0.217  0.0146  0.1839  0.0258
 4886W        W15146   1.022  11.518   0.012  0.2699  0.3615 -0.0729
 4887W        W15147   1.962  12.654   8.389 -0.1299  0.1814  0.1458
 4888W        W15148  13.144  12.437   7.785  0.1964 -0.1497  0.2739
 4889W        W15149   1.434  11.467   0.273  0.0471  0.0821  0.1587
 4890W        W15150   1.267   1.724   7.396 -0.0546  0.0133  0.2818
 4891W        W15151   4.464   5.571   8.673  0.3251  0.0236  0.3072
 4892W        W15152  13.996  16.542   8.381  0.1541 -0.1322 -0.0576
 4893W        W15153   0.187  13.970   1.533 -0.3017  0.1279  0.3305
 4894W        W15154   4.485  13.864   6.566  0.0497 -0.1504  0.2685
 4895W        W15155   4.217  12.729   7.992  0.2050  0.2666 -0.2541
 4896W        W15156   3.128   1.532   1.410  0.3760 -0.2414  0.1921
 4897W        W15157  14.451  14.756   6.506 -0.1821  0.1182  0.2547
 4898W        W15158   3.829   6.825   7.594  0.4529 -0.2506 -0.0644
 4899W        W15159   3.332   0.724   7.113 -0.1282 -0.1295 -0.0248
 4900W        W15160  13.496  15.707   0.605  0.2193 -0.2147 -0.2332
 4901W        W15161  13.239  16.504   6.825  0.0823 -0.1370 -0.0110
 4902W        W15162  16.545  15.683   0.001 -0.2146  0.2717 -0.0516
 4903W        W15163   5.512  13.953   0.535 -0.1259 -0.1418  0.2269
 4904W        W15164  16.270  14.481   7.412 -0.1469 -0.4080 -0.0308
 4905W        W15165   7.334   3.078   0.615 -0.4532 -0.1984  0.0809
 4906W        W15166  15.756  11.422   8.604 -0.1284  0.1644 -0.1433
 4907W        W15167  13.317  13.277   7.499  0.3851  0.2423 -0.3075
 4908W        W15168   2.228   5.129   7.454 -0.0036 -0.1382 -0.2969
 4909W        W15169   1.724  13.229   8.004  0.0303 -0.3372 -0.3037
 4910W        W15170   2.585  10.905   8.126  0.3668  0.2106  0.0753
 4911W        W15171  13.379   0.547   1.084  0.1109  0.0167 -0.1196
 4912W        W15172   0.573  13.216   6.418  0.1660 -0.0553 -0.0840
 4913W        W15173   5.564  12.574   7.851  0.0455  0.1496 -0.0541
 4914W        W15174   7.523  12.689   7.315 -0.2536  0.1801 -0.0291
 4915W        W15175   3.383  11.090   7.174  0.0406 -0.1698 -0.0019
 4916W        W15176   4.622  16.020   1.929  0.1848  0.3185  0.3019
 4917W        W15177   2.911  15.580   0.244 -0.0947  0.0214  0.0305
 4918W        W15178  16.143   4.553   1.508  0.2275  0.0438  0.3547
 4919W        W15179  15.485  13.580   2.604 -0.5101 -0.0728 -0.0077
 4920W        W15180  15.901  15.446   8.619  0.1922 -0.5123 -0.4162
 4921W        W15181  13.719   0.526   1.906 -0.0154 -0.0248  0.0516
 4922W        W15182   4.591  16.476   2.223  0.0068 -0.0084 -0.0225
 4923W        W15183   7.789   8.799   8.014  0.0908 -0.1640 -0.0640
 4924W        W15184  16.034   2.876   1.083  0.1433  0.2074 -0.0649
 4925W        W15185  15.995  14.893   1.284  0.1296  0.0694  0.1190
 4926W        W15186   5.585  15.148   8.045 -0.2299  0.0751  0.0975
 4927W        W15187  13.085  14.697   6.936 -0.2501 -0.1469 -0.0214
 4928W        W15188   0.306  10.096   7.078 -0.1937 -0.0512 -0.0611
 4929W        W15189   4.821  13.636   6.855  0.1680 -0.5907 -0.2040
 4930W        W15190  12.835  10.292   1.975 -0.0371 -0.1221 -0.1449
 4931W        W15191  12.746   1.642   8.535 -0.0480  0.3538 -0.1579
 4932W        W15192   0.252  14.264   2.981 -0.4561 -0.1992  0.1467
 4933W        W15193  15.378  13.919   6.661  0.0436 -0.2308  0.2219
 4934W        W15194   0.010  13.357   0.033  0.0718 -0.0959  0.1595
 4935W        W15195   0.176  16.517   8.577 -0.0723 -0.0012 -0.1586
 4936W        W15196   4.174  14.015   7.985 -0.2763 -0.1993 -0.0200
 4937W        W15197   3.886   1.533   5.904  0.1375 -0.5222  0.1197
 4938W        W15198   2.282  15.241   0.920 -0.0400 -0.0130  0.2474
 4939W        W15199   2.971   1.743   1.853  0.2661 -0.1202  0.2546
 4940W        W15200  10.391   2.357   8.082  0.2251  0.0422 -0.1536
 4941W        W15201   0.267   4.671   2.197  0.0782 -0.3329 -0.0887
 4942W        W15202   3.731  13.952   1.156  0.2097  0.0459 -0.2268
 4943W        W15203  16.240  15.234   1.533 -0.1659 -0.0681  0.1871
 4944W        W15204   3.140  14.316   7.153  0.0318  0.0937  0.1041
 4945W        W15205   6.597  14.596   0.177 -0.1904 -0.1673  0.0049
 4946W        W15206   1.429   9.103   8.098  0.0894 -0.0133  0.2115
 4947W        W15207   1.025  12.800   1.681 -0.4604  0.0246  0.0343
 4948W        W15208   1.417  13.938   0.516  0.1846 -0.0380 -0.4303
 4949W        W15209   0.186   1.202   7.073 -0.0442  0.0035 -0.1340
 4950W        W15210   1.787  10.398   8.213 -0.0679 -0.0612 -0.2072
 4951W        W15211   4.524   0.417   0.331 -0.1196 -0.1292  0.0260
 4952W        W15212   3.358   0.683   0.549 -0.2271 -0.0306 -0.1620
 4953W        W15213  13.913   3.913   0.541 -0.0533  0.1171  0.4613
 4954W        W15214  14.583   2.837   0.888  0.2000 -0.0162 -0.0851
 4955W        W15215   4.228  12.017   0.223 -0.0419  0.3243  0.0707
 4956W        W15216   3.146   0.902   2.179  0.1835  0.2941  0.3325
 4957W        W15217  10.563  16.556   8.400 -0.0062  0.0017 -0.0101
 4958W        W15218   9.009  13.559   6.062  0.0852  0.0222  0.0603
 4959W        W15219  15.049   7.386   0.551  0.1498 -0.0450 -0.0030
 4960W        W15220   0.857  13.480   6.737 -0.1366 -0.2212 -0.0418
 4961W        W15221  13.710  15.788   7.271  0.2738 -0.0075  0.0014
 4962W        W15222   0.993  14.873   8.449  0.0000 -0.0927  0.3729
 4963W        W15223   0.203  12.953   1.315 -0.0064  0.1723  0.1444
 4964W        W15224   3.112  13.207   7.798  0.1313  0.0642  0.1835
 4965W        W15225   3.460  10.688   1.399 -0.0177 -0.0664  0.2713
 4966W        W15226   3.724   0.046   6.632 -0.1079  0.0939  0.2146
 4967W        W15227   2.935  13.680   1.601 -0.2534 -0.1271 -0.1719
 4968W        W15228   0.779  15.843   1.341  0.0599  0.1096 -0.2139
 4969W        W15229  11.481  14.622   0.505 -0.3401 -0.1432 -0.1419
 4970W        W15230   3.310   7.937   6.750  0.1117 -0.0517 -0.2241
 4971W        W15231  16.055  14.253   8.656  0.0110 -0.1092  0.4067
 4972W        W15232   4.228  13.856   0.342 -0.1635  0.0671 -0.0520
 4973W        W15233   2.424  12.682   8.191 -0.4177 -0.1371 -0.0217
 4974W        W15234   9.354   1.355   7.038 -0.2277  0.1649 -0.1549
 4975W        W15235  16.447   3.689   1.347  0.0785  0.3603  0.0122
 4976W        W15236  15.310   0.408   8.570  0.2471 -0.3123 -0.1927
 4977W        W15237   2.771  14.201   8.178  0.2125 -0.0294 -0.1834
 4978W        W15238  12.191  15.730   1.096 -0.0283 -0.1014 -0.3095
 4979W        W15239   4.885  16.325   7.091 -0.2627  0.0835  0.0594
 4980W        W15240   2.069  16.537   7.556 -0.1011 -0.3600  0.3087
 4981W        W15241   5.640  15.133   7.179 -0.1105  0.0650 -0.2250
 4982W        W15242   3.512  13.579   0.393  0.0404 -0.1095 -0.2112
 4983W        W15243   1.887  13.714   6.747 -0.1668  0.0741 -0.0460
 4984W        W15244   8.154  12.090   7.895 -0.1642 -0.2182 -0.0173
 4985W        W15245   7.051  14.625   1.042  0.2107  0.0324 -0.0302
 4986W        W15246   5.520  15.996   8.570 -0.2137 -0.1391  0.2270
 4987W        W15247  15.096   9.999   7.228 -0.1585  0.0359  0.0848
 4988W        W15248   1.916  11.895   1.760  0.1433  0.3924 -0.0750
 4989W        W15249   1.854  15.194   7.023 -0.4454  0.1306 -0.3774
 4990W        W15250   2.215   9.629   8.129 -0.2394 -0.2091  0.0290
 4991W        W15251   6.635  14.528   6.781  0.0104  0.3906  0.0390
 4992W        W15252   9.404   1.340   0.632  0.4454 -0.2518 -0.0045
 4993W        W15253   3.955  10.445   7.920  0.2580  0.2637  0.0592
 4994W        W15254   4.618   9.644   1.189 -0.1307 -0.2202 -0.1685
 4995W        W15255   2.736  11.406   1.060  0.0453 -0.1303  0.3694
 4996W        W15256   6.384  14.450   7.203 -0.2311  0.1238 -0.2056
 4997W        W15257   6.008  11.987   0.158  0.1380 -0.1896 -0.0222
 4998W        W15258   3.632  12.465   6.650 -0.5542 -0.1149 -0.5430
 4999W        W15259   5.810   2.896   6.588  0.1424  0.1604 -0.0514
 5000W        W15260  10.523  10.733   2.693  0.3689  0.2254  0.1813
 5001W        W15261   5.016  15.783   8.454 -0.0335 -0.0235 -0.0272
 5002W        W15262   0.363  11.759   7.248  0.0027 -0.2312 -0.1261
 5003W        W15263  14.232  14.964   2.690  0.0898  0.3539 -0.0991
 5004W        W15264   9.763   2.838   7.939  0.2279  0.0622  0.2827
 5005W        W15265   2.722   3.037   0.113 -0.0129  0.1874  0.0146
 5006W        W15266   6.797  14.414   0.637  0.0836  0.0784  0.1832
 5007W        W15267   3.979  13.248   0.936 -0.1823  0.1686  0.1162
 5008W        W15268   1.889  14.588   7.910 -0.4438  0.2268  0.3348
 5009W        W15269   4.879  13.823   1.256  0.2108  0.2098  0.3701
 5010W        W15270   1.200   8.072   8.530  0.3210 -0.1752  0.1272
 5011W        W15271   7.162  11.360   0.553  0.0353 -0.3838 -0.0785
 5012W        W15272  14.543  15.100   7.011  0.2139 -0.1851  0.1525
 5013W        W15273   3.073  11.815   6.968 -0.5338 -0.3191 -0.2585
 5014W        W15274  11.669   4.303   0.428 -0.1121  0.1764 -0.3267
 5015W        W15275   5.675  12.782   2.246  0.0721  0.2938  0.2486
 5016W        W15276   8.690  13.753   0.036  0.0070  0.1969  0.0517
 5017W        W15277  11.979  10.747   0.808  0.0381 -0.1241 -0.1924
 5018W        W15278   5.927   1.791   8.365 -0.0763  0.2092  0.2295
 5019W        W15279   8.008  13.234   0.533 -0.1923  0.0770  0.1825
 5020W        W15280  16.215  15.609   8.215 -0.0063 -0.1387 -0.0394
 5021W        W15281   5.765   2.085   6.302 -0.0327 -0.0090 -0.1513
 5022W        W15282   3.260  16.423   0.337 -0.0954 -0.1037 -0.2229
 5023W        W15283   9.064   9.417   8.584  0.1178  0.0059 -0.1446
 5024W        W15284   8.216   9.093   5.940  0.3546 -0.1671  0.0441
 5025W        W15285   5.706  12.989   1.671  0.1742  0.3565 -0.1758
 5026W        W15286   3.264  14.622   1.208  0.3113 -0.3775 -0.0230
 5027W        W15287   6.297  14.371   0.719  0.1348 -0.0767 -0.2515
 5028W        W15288   3.797  13.806   8.448 -0.1129 -0.0343 -0.0191
 5029W        W15289  10.435   8.531   7.562  0.0602  0.0564  0.0235
 5030W        W15290   2.372  16.477   7.097  0.1479 -0.3090  0.0005
 5031W        W15291   2.012  11.509   8.294 -0.1076  0.0986 -0.0637
 5032W        W15292   8.228   0.417   7.093 -0.0293  0.0889  0.1216
 5033W        W15293   5.277   2.134   6.966  0.0574  0.0669 -0.1067
 5034W        W15294  15.168  14.483   1.567 -0.1466  0.0518  0.2729
 5035W        W15295   5.733  16.452   7.652  0.2235  0.0075 -0.1281
 5036W        W15296   1.907  14.891   0.967 -0.2491  0.0919  0.0968
 5037W        W15297  15.674  13.428   7.869  0.0756 -0.4070  0.1018
 5038W        W15298  11.531   3.116   7.897  0.3307  0.1202  0.1627
 5039W        W15299   2.910  10.975   7.454 -0.1274  0.1556  0.3317
 5040W        W15300   6.028  15.761   1.161  0.1582  0.3233  0.3136
 5041W        W15301   3.700   0.580   7.452  0.0715 -0.0700  0.2524
 5042W        W15302   6.684  12.875   7.002  0.2756  0.4993  0.0114
 5043W        W15303   1.594  10.408   0.872  0.0543  0.1143 -0.2788
 5044W        W15304   8.096  15.730   7.947 -0.0281 -0.2067 -0.0276
 5045W        W15305   1.155  12.059   8.031  0.1191 -0.3444  0.3441
 5046W        W15306   7.419  14.833   7.716  0.1262  0.0852  0.1643
 5047W        W15307   5.028   1.813   6.019 -0.1577  0.0470  0.1918
 5048W        W15308  10.710  13.902   7.231  0.0470 -0.2036  0.1866
 5049W        W15309   2.512   1.653   0.607 -0.0017  0.0743 -0.1004
 5050W        W15310   0.805  14.730   2.975  0.1181 -0.0661  0.0469
 5051W        W15311   6.186  14.469   6.722  0.0723  0.0997  0.0558
 5052W        W15312  10.239  11.934   7.104 -0.0143 -0.0484 -0.1404
 5053W        W15313   4.070  11.070   0.208  0.0353  0.0475 -0.2341
 5054W        W15314  13.235  14.087   7.725  0.1427 -0.1445 -0.2914
 5055W        W15315   7.870   7.411   7.864  0.0498 -0.0277 -0.0285
 5056W        W15316   7.926  10.880   7.622  0.1405 -0.2624  0.0325
 5057W        W15317   0.299  12.335   7.449  0.1032 -0.0191  0.1609
 5058W        W15318   2.026   0.367   6.957 -0.2401 -0.0936 -0.1489
 5059W        W15319   9.332  15.853   0.934 -0.2135  0.5508  0.0778
 5060W        W15320   8.105  14.331   7.956 -0.2225  0.1485 -0.2060
 5061W        W15321  11.936   2.758   7.276  0.4968  0.1401 -0.0763
 5062W        W15322   8.529  12.710   1.561  0.2500 -0.0635  0.0516
 5063W        W15323   3.154  15.085   7.767 -0.0993 -0.0362  0.0763
 5064W        W15324   6.822  14.094   6.506 -0.2350  0.1087  0.0012
 5065W        W15325   5.579  15.220   0.017  0.1747  0.1516 -0.1908
 5066W        W15326   0.518  12.286   6.993  0.0230  0.0988 -0.0969
 5067W        W15327   1.537  10.906   0.942  0.1913  0.0230  0.0763
 5068W        W15328   3.383   5.357   1.746  0.0522  0.2162 -0.1283
 5069W        W15329   8.641  15.092   6.838  0.0217  0.3279 -0.0023
 5070W        W15330   7.056  14.228   8.058  0.1215  0.3005  0.0768
 5071W        W15331   2.999  13.367   0.184 -0.3149 -0.0859 -0.0346
 5072W        W15332   4.642  13.345   2.302 -0.2070  0.0833 -0.2495
 5073W        W15333  12.045  13.907   7.114 -0.1788 -0.0308 -0.0669
 5074W        W15334   7.614  10.134   0.245  0.1380 -0.3388 -0.1735
 5075W        W15335   0.664  16.294   0.368 -0.2799  0.0546  0.2831
 5076W        W15336   6.802  16.393   0.703  0.3328  0.0818  0.3126
 5077W        W15337   7.941  13.399   7.093  0.0689  0.0164  0.2738
 5078W        W15338   5.734  12.153   8.339  0.2003  0.0330  0.1921
 5079W        W15339   9.848  13.642   7.855 -0.4101  0.0759 -0.1335
 5080W        W15340   7.198  15.160   8.002 -0.3441  0.0157  0.1632
 5081W        W15341   3.405   9.473   7.359 -0.0072 -0.1930 -0.1533
 5082W        W15342   8.020  10.665   6.753  0.0591  0.3309  0.0089
 5083W        W15343   6.883  15.033   6.769  0.0395  0.0790  0.2615
 5084W        W15344   0.904   9.138   8.057 -0.1167 -0.2387 -0.1268
 5085W        W15345   6.936   0.522   6.736  0.3404 -0.2063 -0.0702
 5086W        W15346   2.267   1.038   7.966 -0.2079  0.1897  0.2583
 5087W        W15347   8.606  10.985   6.932 -0.0040  0.2789 -0.1929
 5088W        W15348   4.794   2.725   6.808 -0.1108 -0.2735 -0.0798
 5089W        W15349   1.757  16.083   0.324 -0.3539  0.1014  0.0406
 5090W        W15350   6.951  14.186   7.081 -0.2148  0.0335  0.0374
 5091W        W15351   8.146   1.742   7.944 -0.1709  0.1026  0.1855
 5092W        W15352   7.711  13.981   7.094 -0.3603  0.1331  0.3931
 5093W        W15353   8.381  15.211   2.410  0.0574 -0.1839  0.0590
 5094W        W15354   8.216   8.433   8.224  0.0020  0.1536 -0.0053
 5095W        W15355   5.001   0.768   0.833  0.1902 -0.1482  0.2928
 5096W        W15356   5.733   8.915   6.963 -0.2056  0.0879  0.1044
 5097W        W15357   2.569  15.822   7.504 -0.0202 -0.1134  0.1518
 5098W        W15358   5.430  15.596   1.986  0.2473 -0.1235  0.1316
 5099W        W15359   1.475  13.002   7.605 -0.0105 -0.0133  0.2362
 5100W        W15360   1.049  15.875   8.234  0.0482 -0.2161  0.1006
 5101W        W15361   6.050  13.461   6.502  0.2173  0.2176 -0.0367
 5102W        W15362   6.987   2.843   6.615  0.0019 -0.0504 -0.2118
 5103W        W15363   3.067   1.773   6.714  0.3462  0.0501 -0.1086
 5104W        W15364   3.879  14.543   1.875 -0.1854  0.1970 -0.0215
 5105W        W15365   9.272   0.936   7.875  0.0108  0.3868 -0.2153
 5106W        W15366   4.185   2.235   0.137  0.3465  0.2973 -0.0091
 5107W        W15367   8.535   6.019   1.727  0.0112 -0.2040 -0.1807
 5108W        W15368   8.437  14.831   0.390  0.0599 -0.0467 -0.1169
 5109W        W15369   5.067  14.482   7.319  0.0731 -0.1096 -0.0580
 5110W        W15370   5.492  13.441   1.328 -0.2881 -0.0514  0.0461
 5111W        W15371   0.918  11.996   8.579 -0.0364 -0.1033  0.2880
 5112W        W15372   8.957  11.467   6.186 -0.2133  0.0922  0.1212
 5113W        W15373   2.290  13.737   0.519 -0.0927  0.0938 -0.0609
 5114W        W15374   8.798   0.612   0.132  0.0673  0.0146  0.2294
 5115W        W15375   0.904   0.559   0.151  0.1177  0.0161  0.2627
 5116W        W15376   1.845   0.496   1.029  0.0881 -0.0676 -0.1120
 5117W        W15377   6.820  16.391   1.644 -0.0722  0.0608  0.1788
 5118W        W15378   8.360   1.701   0.179  0.0213 -0.1328 -0.0196
 5119W        W15379   6.366  12.906   8.473 -0.1114 -0.1424  0.0147
 5120W        W15380   2.283  10.875   5.997  0.0526  0.2122 -0.0849
 5121W        W15381   7.769  13.680   7.448  0.3662  0.1669 -0.1312
 5122W        W15382   3.760   0.730   1.528  0.1156  0.1676  0.1307
 5123W        W15383   8.350   2.445   6.256 -0.3549 -0.2546  0.0304
 5124W        W15384   1.150  13.253   0.139  0.1724 -0.2254  0.0464
 5125W        W15385   6.017   0.933   7.033  0.0370  0.4192  0.0324
 5126W        W15386   0.760   3.415   0.411 -0.0445 -0.3101  0.1153
 5127W        W15387   8.447   0.637   1.827  0.2671  0.0652  0.3308
 5128W        W15388   7.333   4.228   7.796 -0.2761 -0.1767 -0.1988
 5129W        W15389   3.170   3.200   1.767  0.0940 -0.0641 -0.1842
 5130W        W15390   5.085  12.374   1.423 -0.1755  0.1852 -0.0304
 5131W        W15391   7.344  14.868   6.732  0.2786  0.1382  0.0765
 5132W        W15392  12.557  15.134   8.596  0.0277  0.0245 -0.3167
 5133W        W15393  11.872  11.885   6.792 -0.0177 -0.0579  0.3104
 5134W        W15394   9.232  13.716   1.893 -0.2945 -0.3238 -0.3269
 5135W        W15395  11.678  14.948   1.622 -0.0983  0.0425  0.0982
 5136W        W15396   4.244  11.988   7.221 -0.1651 -0.1243  0.3313
 5137W        W15397  11.642  13.837   1.865 -0.0203  0.0416  0.1814
 5138W        W15398   9.475  14.283   6.292  0.0188 -0.1383 -0.4067
 5139W        W15399   6.273  12.560   6.880 -0.2002  0.0221  0.0804
 5140W        W15400  10.937   2.165   0.094 -0.1186 -0.1112  0.4275
 5141W        W15401  10.653  14.942   8.271  0.1128  0.0652  0.1887
 5142W        W15402  11.567   1.808   1.704 -0.0671  0.2538 -0.1512
 5143W        W15403   2.832   0.587   7.229  0.0659 -0.1489  0.0021
 5144W        W15404   7.921  14.225   8.428  0.1071  0.2137 -0.0185
 5145W        W15405   7.840  12.290   0.626  0.2490 -0.0672 -0.0870
 5146W        W15406  11.952  13.186   7.588 -0.0064  0.1136 -0.0148
 5147W        W15407  13.158   1.445   7.072 -0.1160 -0.1383  0.2301
 5148W        W15408  16.447   4.527   8.062  0.1840  0.2544 -0.1290
 5149W        W15409   7.522  16.492   1.269  0.0038 -0.1091  0.1370
 5150W        W15410  10.505  14.554   0.409  0.0670  0.1227 -0.1660
 5151W        W15411   7.869  12.758   0.279  0.1049  0.2991  0.0817
 5152W        W15412   7.535  13.390   8.432  0.2736  0.0263 -0.0277
 5153W        W15413   5.803   0.347   0.811  0.0274 -0.3198  0.1342
 5154W        W15414   3.419  15.681   0.039  0.0851  0.0560  0.0819
 5155W        W15415   6.163  14.938   8.038 -0.0454  0.0821  0.3343
 5156W        W15416  12.134   0.436   1.383  0.1166  0.1770 -0.0234
 5157W        W15417  11.130  13.285   0.924 -0.2722  0.1610 -0.3217
 5158W        W15418   2.258  14.993   6.730 -0.1955 -0.0401 -0.1518
 5159W        W15419   8.967  12.339   7.052 -0.2561  0.1606 -0.0943
 5160W        W15420  11.152   2.451   7.802 -0.0917  0.1214  0.0791
 5161W        W15421   4.235   4.008   0.413  0.0896 -0.1351  0.0173
 5162W        W15422   7.382   4.848   0.699  0.1024  0.1758 -0.3131
 5163W        W15423   8.408  13.599   1.421  0.0548 -0.3071 -0.0035
 5164W        W15424   4.664  12.618   0.454  0.1952 -0.7457  0.0203
 5165W        W15425   8.510  13.483   5.903 -0.0361 -0.2253 -0.3418
 5166W        W15426  15.017   9.367   7.962 -0.3978  0.2576  0.0682
 5167W        W15427   1.037  11.717   1.129 -0.2193  0.1137  0.0975
 5168W        W15428   1.023  10.801   8.206 -0.2192  0.0099  0.0393
 5169W        W15429   9.475  14.100   0.659 -0.0298  0.0878  0.2060
 5170W        W15430  12.141  15.781   6.525 -0.3469 -0.2497  0.3427
 5171W        W15431   9.882  16.100   8.023  0.0369  0.1905 -0.0833
 5172W        W15432  10.270  16.223   0.765 -0.1050  0.0072 -0.2267
 5173W        W15433   6.944   1.788   1.294  0.0346 -0.0051 -0.0396
 5174W        W15434   7.182  13.388   7.565  0.1733 -0.1136  0.0720
 5175W        W15435   7.605  11.004   8.430 -0.2323  0.0584 -0.2023
 5176W        W15436  10.202  15.704   0.602  0.0385  0.0632 -0.2229
 5177W        W15437   5.218  10.847   7.901 -0.0060  0.0026 -0.0816
 5178W        W15438  12.148  10.890   7.210 -0.2357  0.4884 -0.1047
 5179W        W15439   7.794  13.970   5.926 -0.2004 -0.1950 -0.1445
 5180W        W15440   6.717  15.384   7.234  0.0603 -0.1572  0.0215
 5181W        W15441   3.857   0.036   8.098  0.0462  0.1225 -0.0423
 5182W        W15442   9.022   2.311   8.495 -0.0017 -0.2077  0.2453
 5183W        W15443  13.565  13.771   7.555  0.0830 -0.1224 -0.0234
 5184W        W15444   9.789  14.037   1.648 -0.1343  0.1539  0.0997
 5185W        W15445   2.303  13.921   1.019 -0.1726 -0.0201  0.1684
 5186W        W15446   2.100  15.918   7.276  0.0101  0.1216 -0.1711
 5187W        W15447   8.151  12.397   0.133  0.0309  0.0958  0.0870
 5188W        W15448   9.533  15.342   7.591  0.0475  0.0687  0.0767
 5189W        W15449  12.778  15.871   7.288 -0.1249 -0.0921  0.0606
 5190W        W15450  11.260  13.203   8.357 -0.0306 -0.0489  0.1385
 5191W        W15451   8.344  12.520   7.117 -0.0699  0.1185 -0.1743
 5192W        W15452  11.633  10.570   1.235  0.1230  0.0806 -0.2366
 5193W        W15453  14.382  10.501   7.402  0.1079  0.1975 -0.5507
 5194W        W15454  12.511   9.447   1.045 -0.2507  0.0213  0.1621
 5195W        W15455  14.855  14.006   1.370  0.0282  0.0867  0.1563
 5196W        W15456   5.013   0.134   6.253 -0.0816  0.4337 -0.1223
 5197W        W15457   9.142   1.347   1.758 -0.1530 -0.0971  0.1482
 5198W        W15458  10.385  13.318   0.498 -0.1261  0.2696 -0.1899
 5199W        W15459  12.702   2.454   8.199  0.0490  0.0443 -0.1545
 5200W        W15460   2.090  14.108   8.017  0.2046 -0.3546 -0.1364
 5201W        W15461  10.711   1.313   6.184  0.1666  0.0582  0.1861
 5202W        W15462  13.154   5.375   8.222 -0.1049 -0.0439 -0.2109
 5203W        W15463  13.302  13.829   1.177  0.3177  0.1091  0.0519
 5204W        W15464   8.306  14.841   7.961  0.0214  0.1360  0.1371
 5205W        W15465   8.303  13.584   0.693 -0.0754  0.1410 -0.0936
 5206W        W15466  13.397   4.744   7.627  0.0184 -0.0174  0.0488
 5207W        W15467   5.724   9.078   7.431 -0.0587 -0.1868 -0.2827
 5208W        W15468   9.077  13.466   0.024 -0.0500  0.0612 -0.1272
 5209W        W15469   5.726   0.495   8.594  0.2162  0.0283  0.3252
 5210W        W15470  12.831   1.641   1.694 -0.2529  0.5218 -0.2607
 5211W        W15471   9.497   9.587   8.068  0.0185  0.0953  0.1294
 5212W        W15472   3.765   0.304   0.457  0.0615 -0.4456 -0.0703
 5213W        W15473   8.745   2.263   1.642  0.3963 -0.0924 -0.2623
 5214W        W15474   7.073   3.873   8.572  0.0251 -0.1031  0.0098
 5215W        W15475   8.358  14.268   7.134  0.2233  0.2341  0.1569
 5216W        W15476  10.639  13.869   0.965 -0.0110 -0.3481  0.1855
 5217W        W15477   3.428  11.947   8.611 -0.1084 -0.1929 -0.1474
 5218W        W15478   7.921  14.747   7.622 -0.0086  0.2081 -0.1876
 5219W        W15479  10.697   0.353   0.267 -0.0373 -0.1321 -0.0845
 5220W        W15480  11.391  11.247   1.808 -0.3807  0.1655  0.1177
 5221W        W15481   9.157  15.804   6.894 -0.2058 -0.6381 -0.0844
 5222W        W15482  13.539  14.167   0.670  0.0164 -0.1620  0.1978
 5223W        W15483  11.885   3.026   8.265 -0.0363 -0.1764  0.0677
 5224W        W15484   3.666   0.122   7.600 -0.1459 -0.1836 -0.0774
 5225W        W15485  13.124  16.015   1.355  0.2690  0.0877  0.2680
 5226W        W15486   7.985   6.929   0.601 -0.1847 -0.0705 -0.2368
 5227W        W15487  11.200  14.758   7.075  0.2848  0.1374 -0.0795
 5228W        W15488   7.805  13.991   1.607 -0.2329 -0.1490 -0.0165
 5229W        W15489  10.584   5.968   1.841  0.0288 -0.5557 -0.0244
 5230W        W15490  10.922  12.889   2.705  0.4095 -0.3499 -0.0471
 5231W        W15491   7.104  16.422   2.599 -0.1288 -0.3079 -0.0641
 5232W        W15492   7.261  14.141   6.222 -0.1597 -0.0904 -0.2040
 5233W        W15493   6.885  12.059   0.068  0.2898 -0.0887 -0.0477
 5234W        W15494   9.195  12.111   6.682 -0.1242 -0.0468 -0.1314
 5235W        W15495   9.250   3.278   8.665  0.3084  0.2436  0.1101
 5236W        W15496  12.617   3.663   7.646  0.0382 -0.2922 -0.1273
 5237W        W15497   6.838  13.129   7.930 -0.1600  0.1186 -0.0409
 5238W        W15498   4.932  15.629   1.850  0.1126  0.0373 -0.0732
 5239W        W15499  16.195   7.537   6.623  0.2061 -0.1216 -0.0523
 5240W        W15500  11.480  10.911   0.848 -0.0487  0.1669  0.0696
 5241W        W15501   8.526   0.347   2.391  0.0949  0.0161 -0.0269
 5242W        W15502  10.462   1.020   6.528 -0.1175  0.1790 -0.1434
 5243W        W15503   4.044   3.471   2.213 -0.3755  0.0227 -0.2168
 5244W        W15504  10.836  12.751   7.271  0.1564 -0.0390  0.1838
 5245W        W15505   8.564  15.104   0.785 -0.1538  0.1111  0.2384
 5246W        W15506  11.833   0.899   0.241 -0.0095 -0.0002  0.1008
 5247W        W15507   6.880  15.472   0.602 -0.0169 -0.4062  0.0674
 5248W        W15508   4.114  14.945   2.686 -0.1058  0.1179 -0.3357
 5249W        W15509   6.852   8.680   7.750  0.0013 -0.3304  0.2092
 5250W        W15510  12.666  11.000   0.670  0.0327  0.3531  0.0070
 5251W        W15511  10.928  10.116   7.515  0.0658  0.3603 -0.2035
 5252W        W15512   4.153  14.739   6.920 -0.3776  0.2365 -0.0150
 5253W        W15513   1.381  15.155   0.118  0.0354 -0.0361 -0.1517
 5254W        W15514  13.810  13.102   8.280  0.2707 -0.0731  0.1350
 5255W        W15515  11.013   9.370   8.040 -0.3256  0.1214 -0.1692
 5256W        W15516   4.686  14.427   7.012  0.0304  0.1818 -0.3363
 5257W        W15517   6.421   2.576   7.824  0.1483 -0.1648 -0.1571
 5258W        W15518   6.796  13.198   8.547 -0.0006  0.0289 -0.1661
 5259W        W15519  12.218   1.091   1.594  0.1159 -0.0052  0.1921
 5260W        W15520   8.183  10.868   0.167  0.0106 -0.1471  0.0179
 5261W        W15521   6.690   3.369   8.110 -0.0933 -0.0127  0.0900
 5262W        W15522   1.734  13.413   7.545 -0.0982 -0.1899  0.1411
 5263W        W15523  12.177  15.468   8.001 -0.0383 -0.1688 -0.1030
 5264W        W15524   7.280  12.346   6.627  0.0678  0.1286  0.0367
 5265W        W15525  10.197   0.327   0.499 -0.0241  0.0483  0.0158
 5266W        W15526   7.802  15.738   0.693  0.2404 -0.1633  0.0452
 5267W        W15527   6.753  10.105   7.335  0.1086 -0.0779 -0.2473
 5268W        W15528  13.424   4.200   7.301 -0.2437 -0.4361 -0.2110
 5269W        W15529   7.379  15.766   6.593 -0.0926 -0.0942  0.0099
 5270W        W15530  14.630  13.685   1.105 -0.1054 -0.1994  0.0247
 5271W        W15531   6.073  14.733   1.969  0.1605 -0.3637  0.0505
 5272W        W15532   9.833  12.650   1.128  0.1579  0.1290  0.0375
 5273W        W15533   2.468   7.216   0.461 -0.0975 -0.2522 -0.0007
 5274W        W15534   5.139  12.113   8.486 -0.0784 -0.0229  0.0679
 5275W        W15535   7.335   2.484   7.259 -0.0822  0.2166  0.1405
 5276W        W15536   5.381  14.920   6.262  0.1620 -0.1662  0.1162
 5277W        W15537   9.761   1.528   6.790 -0.0669 -0.0909  0.2842
 5278W        W15538  12.046  16.306   1.907  0.1814  0.1010 -0.0909
 5279W        W15539   7.334  15.434   0.864  0.0375  0.0132  0.4540
 5280W        W15540   9.998   3.671   7.707  0.0179  0.1134 -0.0954
 5281W        W15541   8.020   2.121   0.020  0.1916  0.2474 -0.2025
 5282W        W15542   8.619   2.980   7.882 -0.0119  0.0975 -0.1033
 5283W        W15543   3.722  14.515   1.081  0.5363 -0.0114 -0.0345
 5284W        W15544   3.953   0.858   7.987  0.1592  0.0341 -0.2617
 5285W        W15545  13.632  10.720   7.974 -0.0411  0.0297 -0.0055
 5286W        W15546   8.254  13.484   0.228  0.1963 -0.3256 -0.2546
 5287W        W15547   3.199  15.300   0.537  0.2289  0.1854 -0.1406
 5288W        W15548   5.703   0.039   7.089  0.0962  0.0285  0.2377
 5289W        W15549   7.683  12.219   7.515  0.1054  0.3077  0.0685
 5290W        W15550   6.938   0.297   0.026 -0.2725 -0.2965  0.0502
 5291W        W15551  11.413  14.746   6.637 -0.3477 -0.2712 -0.2741
 5292W        W15552  14.355  15.892   1.522  0.1170  0.0038 -0.1094
 5293W        W15553  10.905  11.314   7.504 -0.2760  0.0749  0.1422
 5294W        W15554  10.546   2.595   1.971  0.0727  0.0220 -0.4945
 5295W        W15555  12.342  16.403   1.422 -0.0267 -0.0188  0.0477
 5296W        W15556  11.484  12.493   0.212 -0.3487 -0.1640  0.0198
 5297W        W15557  11.125   1.370   7.656  0.2016  0.3333  0.2758
 5298W        W15558   0.331  13.603   2.335  0.0165  0.2640  0.2783
 5299W        W15559  14.119  14.913   8.189  0.2426 -0.0436  0.0773
 5300W        W15560   0.631   5.595   7.083  0.4320  0.1896 -0.0700
 5301W        W15561   6.753   7.995   7.049  0.0377  0.3164 -0.0632
 5302W        W15562   6.795  15.570   8.228  0.1520 -0.0826 -0.0562
 5303W        W15563  11.198  10.652   6.848  0.4638  0.0626  0.0663
 5304W        W15564  12.549   1.177   7.456 -0.1636  0.1340 -0.1074
 5305W        W15565  14.157   1.171   7.615 -0.0251 -0.0896  0.3891
 5306W        W15566  13.946   9.448   8.635  0.0682  0.2202  0.2539
 5307W        W15567  15.013   0.147   0.549  0.0508  0.2061  0.0057
 5308W        W15568   0.315   4.827   7.203 -0.3356 -0.0354  0.0261
 5309W        W15569   4.238  15.902   1.339 -0.2077  0.5028  0.0655
 5310W        W15570  11.794  13.472   7.078 -0.2556 -0.0726  0.3575
 5311W        W15571  13.047  15.667   0.427 -0.2981 -0.0804 -0.0690
 5312W        W15572   9.691  12.379   0.355 -0.0860  0.0879  0.1563
 5313W        W15573  12.932  13.974   0.173  0.1746 -0.2894  0.3630
 5314W        W15574  13.684  15.243   7.227 -0.1624 -0.0005  0.0791
 5315W        W15575   6.421  12.494   8.024  0.1554  0.4361  0.1229
 5316W        W15576  12.190  16.519   8.358 -0.2998 -0.0739 -0.0010
 5317W        W15577  13.734   2.556   7.718  0.1334 -0.2940 -0.2237
 5318W        W15578   9.126   3.770   6.080 -0.2453 -0.1590  0.1044
 5319W        W15579  10.624  14.271   8.579  0.0600  0.0568 -0.1519
 5320W        W15580  13.078  11.337   0.694 -0.0803  0.2736 -0.3648
 5321W        W15581  14.445   8.790   1.320  0.1053  0.0463 -0.0600
 5322W        W15582  10.659  15.558   7.011 -0.0078  0.1138 -0.2019
 5323W        W15583  15.983   0.434   6.944 -0.0647  0.2308 -0.0043
 5324W        W15584   5.659  13.582   7.653  0.0276 -0.2740  0.3388
 5325W        W15585  11.380  15.501   8.271 -0.0531  0.1571  0.0735
 5326W        W15586   7.952  14.686   8.371 -0.0803  0.0867 -0.1690
 5327W        W15587   8.927   1.125   7.315 -0.0756  0.0376  0.2756
 5328W        W15588  12.949   2.771   7.463 -0.1715  0.2187  0.0049
 5329W        W15589   3.363  16.351   7.309  0.1846 -0.1327 -0.2206
 5330W        W15590  13.898   0.736   7.083 -0.2374 -0.2463 -0.0553
 5331W        W15591   7.623  11.692   0.526  0.0488  0.1069 -0.1134
 5332W        W15592  10.238   9.468   1.572 -0.0347  0.3388 -0.4938
 5333W        W15593  12.997  14.289   8.188 -0.3476  0.0622  0.0249
 5334W        W15594  10.868  15.988   6.783 -0.1321  0.0252 -0.2425
 5335W        W15595  10.554  10.300   6.801 -0.2192 -0.2341  0.0579
 5336W        W15596  10.038   2.678   1.296 -0.0214 -0.0551  0.2752
 5337W        W15597  15.713   9.483   7.504  0.0146 -0.1920 -0.1596
 5338W        W15598   8.817   0.690   0.768  0.0576  0.0207 -0.0526
 5339W        W15599   9.693  12.675   7.124 -0.0696 -0.1417 -0.2127
 5340W        W15600  14.787   0.517   6.794  0.0752  0.1341 -0.0461
 5341W        W15601   2.589  16.319   7.600 -0.2376 -0.0320 -0.2817
 5342W        W15602  13.149  12.763   1.543  0.2164  0.3369  0.0807
 5343W        W15603   1.172   7.361   8.358  0.2091 -0.0336 -0.0491
 5344W        W15604  10.785  13.109   2.093 -0.1010 -0.0432 -0.1914
 5345W        W15605  14.507   3.481   1.196 -0.2291 -0.1172 -0.0188
 5346W        W15606   6.692   0.285   0.907 -0.0845  0.1620  0.1269
 5347W        W15607  12.366  11.112   7.578 -0.1432 -0.1993 -0.0724
 5348W        W15608  13.289  16.391   5.995  0.0041  0.3440  0.2323
 5349W        W15609  11.929  11.120   1.422 -0.0909  0.1542 -0.1644
 5350W        W15610  10.461  12.785   1.808 -0.1369  0.3008  0.0745
 5351W        W15611  16.096  12.606   7.065  0.0344 -0.1288 -0.1913
 5352W        W15612  11.892  15.743   0.359  0.1623  0.2684  0.0534
 5353W        W15613   9.551  13.774   6.213 -0.0267  0.2391  0.1943
 5354W        W15614  13.795  14.397   7.629 -0.0581  0.3187 -0.0894
 5355W        W15615   9.448   9.905   0.697 -0.1079 -0.2941  0.1886
 5356W        W15616  12.243   1.791   8.667 -0.0462 -0.1775 -0.0796
 5357W        W15617  10.394  15.214   8.664  0.0106 -0.2887 -0.3000
 5358W        W15618  12.373   0.883   0.110  0.1547 -0.2045 -0.0633
 5359W        W15619  11.118   0.458   6.039  0.0192  0.0186  0.0184
 5360W        W15620  10.458  12.795   0.335  0.1450  0.2326 -0.1024
 5361W        W15621  10.867  11.901   2.018 -0.0833  0.3443  0.1690
 5362W        W15622  11.118   0.391   7.939 -0.2855 -0.0456  0.2227
 5363W        W15623  10.430  15.335   1.329  0.1029  0.0662 -0.0463
 5364W        W15624  15.343   1.859   0.735 -0.0527  0.1782  0.1420
 5365W        W15625   8.876  15.192   0.263  0.1958  0.0910  0.0479
 5366W        W15626   9.797  13.413   1.874 -0.2978  0.0283  0.2001
 5367W        W15627  10.206  12.411   6.449 -0.1540 -0.0095  0.0063
 5368W        W15628  12.001   4.044   6.893 -0.1623 -0.0511  0.0727
 5369W        W15629   8.458  13.805   7.837  0.0031  0.3875  0.1617
 5370W        W15630   0.624   4.768   6.423 -0.1196  0.1854  0.1522
 5371W        W15631  11.610  13.049   6.862  0.0579  0.1363  0.2833
 5372W        W15632  11.934   9.667   0.243  0.1254  0.0111  0.2816
 5373W        W15633  11.623  13.511   2.248  0.1477  0.1059  0.5333
 5374W        W15634   2.498   0.980   1.647  0.1580 -0.0631 -0.1691
 5375W        W15635  16.073  12.502   0.424 -0.0673 -0.0256 -0.0595
 5376W        W15636  13.034  13.006   6.453 -0.0160  0.1959 -0.1842
 5377W        W15637   0.021  15.184   1.881 -0.5232  0.0943 -0.3870
 5378W        W15638  15.385  15.247   0.913 -0.2350 -0.2068  0.1491
 5379W        W15639  13.367   0.135   7.294  0.1934  0.1671  0.1894
 5380W        W15640   8.408  11.952   0.254  0.1469 -0.2238 -0.1102
 5381W        W15641  11.178  14.282   7.921 -0.0030  0.3293  0.1448
 5382W        W15642  15.849  12.367   7.721 -0.1384 -0.1429 -0.3860
 5383W        W15643  15.571   2.732   2.367 -0.0693 -0.0507 -0.0081
 5384W        W15644  16.302  11.471   2.249  0.1493  0.3164 -0.0180
 5385W        W15645  14.438  13.924   2.580  0.0295  0.1812  0.1452
 5386W        W15646  14.335   2.904   6.952  0.2000  0.1475  0.1691
 5387W        W15647  15.292  12.570   8.203 -0.0510  0.1259  0.2761
 5388W        W15648  13.626   3.418   8.301  0.3607  0.0739  0.3105
 5389W        W15649   1.739   5.007   0.771 -0.0164 -0.4116 -0.0732
 5390W        W15650  10.045  15.431   1.776 -0.2676  0.1996  0.1406
 5391W        W15651  13.327   1.634   0.294 -0.0873 -0.1245 -0.1157
 5392W        W15652  14.338  15.893   0.099  0.1546 -0.1122  0.4191
 5393W        W15653   8.358  12.456   2.032 -0.1134  0.3014  0.1690
 5394W        W15654  12.915   3.032   7.049 -0.1137  0.1460  0.1441
 5395W        W15655  13.011   3.574   6.960  0.1614 -0.0134  0.0422
 5396W        W15656  13.085   3.211   1.128  0.0417  0.0047 -0.1375
 5397W        W15657   4.759   6.165   2.359  0.2274  0.1605  0.0714
 5398W        W15658  12.888  15.389   7.698 -0.2554  0.3298  0.0442
 5399W        W15659  15.652  13.829   0.873 -0.1608  0.2815 -0.0302
 5400W        W15660  13.193  12.425   2.491 -0.0350 -0.0435  0.0226
 5401W        W15661  10.984   2.669   0.021  0.1349 -0.3638 -0.0206
 5402W        W15662  12.800  11.984   8.425  0.0303  0.2142 -0.0780
 5403W        W15663   7.654  15.360   6.771  0.1528  0.0931  0.2606
 5404W        W15664  16.456  11.968   7.262  0.1539 -0.0155  0.1491
 5405W        W15665   5.012  10.625   0.041  0.0066 -0.2144  0.1785
 5406W        W15666   9.946   2.572   0.384  0.2598 -0.4440  0.0117
 5407W        W15667   7.902   1.087   1.029 -0.1492  0.1820 -0.0119
 5408W        W15668   7.451  14.401   8.541 -0.1009 -0.3631  0.2866
 5409W        W15669   0.917   6.263   1.052 -0.3276 -0.2644 -0.0853
 5410W        W15670   4.968   8.831   0.417  0.0812  0.1746  0.1741
 5411W        W15671  15.822  16.017   7.485 -0.3724 -0.1840 -0.2140
 5412W        W15672   9.614   2.787   6.846 -0.0623  0.1603 -0.1901
 5413W        W15673  11.564  16.147   2.148 -0.1071 -0.1386 -0.0421
 5414W        W15674  11.391   0.262   6.421  0.1298 -0.0813  0.2777
 5415W        W15675  12.665   9.916   0.783 -0.3628 -0.1546  0.4610
 5416W        W15676   9.070  13.584   0.561 -0.0546  0.1896  0.0443
 5417W        W15677   9.614   1.026   6.795  0.2034 -0.2275  0.0282
 5418W        W15678   6.775  11.732   8.372  0.1450 -0.0923  0.2426
 5419W        W15679   8.643   0.045   0.233  0.0645  0.0853  0.2644
 5420W        W15680  13.789   4.663   1.382  0.1141  0.1250 -0.0065
 5421W        W15681   7.865   0.375   8.451 -0.1736  0.2013 -0.2243
 5422W        W15682  11.408  10.778   0.351 -0.0897  0.2453  0.0394
 5423W        W15683   8.772   3.177   0.177  0.0949 -0.1745  0.0464
 5424W        W15684   1.325   2.752   1.087 -0.0357 -0.0374 -0.1088
 5425W        W15685   0.325  14.969   8.006 -0.0517 -0.0470  0.2366
 5426W        W15686  13.332   9.209   7.952  0.3026 -0.3067  0.0054
 5427W        W15687  14.689   8.738   6.005 -0.0238 -0.1004 -0.4570
 5428W        W15688  10.496   4.152   8.434  0.0253  0.0532 -0.0036
 5429W        W15689  10.560   4.016   1.102 -0.3023  0.2104 -0.3279
 5430W        W15690   9.670  14.821   7.643 -0.0593  0.1534 -0.1243
 5431W        W15691  12.890   9.163   1.312  0.0560 -0.1100 -0.1167
 5432W        W15692   7.419  13.568   6.724  0.1635  0.0383  0.1564
 5433W        W15693   6.070   8.475   2.328 -0.1442  0.1283  0.3066
 5434W        W15694   6.211  15.470   1.497  0.1097  0.2064 -0.1050
 5435W        W15695  12.358   0.048   7.696  0.2144 -0.0190  0.1752
 5436W        W15696   3.384  14.702   0.729 -0.0485  0.3303  0.1428
 5437W        W15697   7.163  13.444   0.686  0.4625  0.1073  0.2426
 5438W        W15698  10.187  12.007   1.452 -0.0447 -0.0649  0.0071
 5439W        W15699   6.144   6.084   1.218 -0.1406  0.0071 -0.0747
 5440W        W15700   6.987  13.294   7.085 -0.0419  0.0878 -0.0303
 5441W        W15701   9.968   3.157   6.886 -0.1817 -0.1979 -0.0927
 5442W        W15702  13.756   1.915   7.302 -0.0867 -0.0807 -0.3233
 5443W        W15703  11.839  12.837   7.238  0.1013  0.0192  0.1085
 5444W        W15704   3.725   2.224   0.356  0.0332 -0.2510 -0.0575
 5445W        W15705  11.152   0.369   1.864 -0.1170 -0.0115  0.0599
 5446W        W15706  16.032  13.450   1.026 -0.1562 -0.4922  0.0529
 5447W        W15707  13.613   4.159   0.191 -0.2106 -0.1582  0.0520
 5448W        W15708  16.081   1.185   1.250 -0.0331  0.2287 -0.1059
 5449W        W15709   8.978  14.195   7.002  0.1052  0.0272 -0.0945
 5450W        W15710  13.866  11.926   1.965 -0.0658 -0.0882  0.3156
 5451W        W15711  16.269  10.215   1.139 -0.0034 -0.0489 -0.1682
 5452W        W15712   0.642   2.956   7.922  0.1341 -0.2865 -0.2516
 5453W        W15713   0.221   5.284   8.435 -0.1425  0.0964  0.0182
 5454W        W15714  14.517   0.340   0.435 -0.1199 -0.0252 -0.0437
 5455W        W15715  10.595  15.091   7.812 -0.0460  0.0124  0.1480
 5456W        W15716  12.869  12.023   1.894 -0.1293 -0.0121 -0.0582
 5457W        W15717   2.777  10.233   7.110 -0.2058 -0.0026  0.1216
 5458W        W15718  14.820  14.237   1.798  0.2807  0.2463 -0.2094
 5459W        W15719  14.143   1.452   8.092 -0.0086  0.2607 -0.1263
 5460W        W15720  16.078  15.078   7.361  0.0963  0.0679 -0.0827
 5461W        W15721  14.464  14.621   8.535 -0.0785  0.0463  0.1223
 5462W        W15722  11.770   8.457   8.425 -0.0994 -0.1589  0.0776
 5463W        W15723   1.111  15.564   8.642 -0.2691  0.0702  0.0846
 5464W        W15724  11.369   0.265   0.990 -0.1886  0.0619 -0.1477
 5465W        W15725  14.089  14.124   0.638 -0.2881 -0.1924 -0.1835
 5466W        W15726   2.942  15.229   6.930 -0.0541 -0.3079 -0.3114
 5467W        W15727   3.227   0.703   1.663  0.0262  0.2295  0.0701
 5468W        W15728   0.830  14.381   0.065  0.0763  0.0512 -0.1584
 5469W        W15729   2.332  10.364   0.761 -0.0255  0.1701  0.1337
 5470W        W15730   2.416  14.021   1.899 -0.1303  0.0639 -0.1483
 5471W        W15731  13.504   3.660   6.879 -0.1241 -0.1973  0.1454
 5472W        W15732  14.568   8.206   1.757 -0.1562 -0.0933 -0.0418
 5473W        W15733  15.773  14.172   1.865  0.0873 -0.2104 -0.0209
 5474W        W15734  15.929  10.358   6.786 -0.1592 -0.0128  0.1297
 5475W        W15735  14.667   2.659   8.587  0.1352  0.1311  0.1557
 5476W        W15736  11.695   4.821   0.423  0.0069 -0.1913  0.0642
 5477W        W15737  15.693  15.174   1.642 -0.1235  0.0014  0.1980
 5478W        W15738   5.043   0.441   7.132 -0.0251 -0.1927  0.0672
 5479W        W15739  14.025  10.882   8.354 -0.1537  0.0696 -0.2150
 5480W        W15740   0.372  14.924   2.180  0.0865  0.3012 -0.1251
 5481W        W15741  14.857  15.959   0.802 -0.1574  0.0922  0.1183
 5482W        W15742   2.499  13.861   2.774 -0.0706 -0.2599  0.0017
 5483W        W15743  16.271   1.711   6.548  0.0166  0.3874 -0.0923
 5484W        W15744   2.774   7.051   7.597  0.1495 -0.0965 -0.0802
 5485W        W15745   1.986  15.433   7.998 -0.0520  0.0088 -0.1121
 5486W        W15746  13.286  14.737   2.529  0.1039  0.0371 -0.1952
 5487W        W15747   4.748  14.666   7.745  0.1416  0.1457  0.0879
 5488W        W15748  15.567  14.768   1.102 -0.1812  0.1033  0.1125
 5489W        W15749  16.075  13.269   1.819  0.2737 -0.0832 -0.2872
 5490W        W15750  15.907  14.824   0.748 -0.0017 -0.0220 -0.3149
 5491W        W15751  13.763   7.390   5.964  0.1056 -0.1905 -0.1272
 5492W        W15752  11.030  14.944   7.498  0.0197 -0.0694 -0.2047
 5493W        W15753   1.266  13.276   1.189 -0.2465  0.2201 -0.5204
 5494W        W15754  11.917   5.071   7.267 -0.4751 -0.0264  0.0835
 5495W        W15755   8.086  16.244   8.111  0.1700 -0.2285 -0.0271
 5496W        W15756  13.981  15.668   1.206 -0.0742  0.0524 -0.1274
 5497W        W15757  12.220  13.356   7.973 -0.0056  0.0400 -0.1589
 5498W        W15758  16.392  14.889   1.032  0.3020 -0.1150  0.0147
 5499W        W15759   4.406   0.459   1.629  0.0286 -0.0678 -0.0209
 5500W        W15760  13.402   0.263   7.790  0.0484 -0.0655 -0.0579
 5501W        W15761  11.877   8.984   7.698 -0.2191 -0.0645 -0.0484
 5502W        W15762   4.121  12.331   7.672  0.2943 -0.0690 -0.0399
 5503W        W15763  14.337  15.319   1.512  0.3463 -0.3682  0.1632
 5504W        W15764   2.679   5.288   8.549 -0.0845 -0.2982 -0.0907
 5505W        W15765  14.963  12.147   0.942 -0.1587 -0.1142  0.1331
 5506W        W15766  10.572  15.158   7.307 -0.0597 -0.0115  0.1476
 5507W        W15767  15.941  16.351   0.292 -0.1745 -0.1301  0.0304
 5508W        W15768  13.619   3.891   1.088 -0.0410 -0.0741 -0.0684
 5509W        W15769   6.976  15.872   0.899  0.0619 -0.2713 -0.1965
 5510W        W15770  11.155  12.163   8.062  0.1913 -0.2219 -0.2308
 5511W        W15771  15.035  16.192   7.225 -0.1498  0.1350 -0.0696
 5512W        W15772  14.398  14.970   2.104 -0.0797  0.0612  0.0334
 5513W        W15773  12.825   2.403   2.076 -0.1084 -0.1568 -0.1150
 5514W        W15774  15.597   0.289   7.214  0.1291  0.0084 -0.1482
 5515W        W15775   7.056  16.583   1.191 -0.0540  0.2293 -0.0914
 5516W        W15776   7.605   2.459   1.232  0.1969  0.1817  0.3694
 5517W        W15777  12.989   0.277   1.320  0.2797 -0.0598 -0.0747
 5518W        W15778   0.970   9.249   7.512  0.0597  0.0808 -0.0297
 5519W        W15779  15.714  15.538   0.600 -0.1587 -0.1306  0.2239
 5520W        W15780  13.518   1.336   7.408  0.4255 -0.4074 -0.0879
 5521W        W15781  15.124  15.840   8.626 -0.2132 -0.2141 -0.2365
 5522W        W15782  15.353   3.565   7.230  0.1132  0.3294  0.1625
 5523W        W15783  15.546   0.124   7.710  0.1603 -0.1087  0.1529
 5524W        W15784  11.716   2.667   5.800 -0.0134 -0.0287  0.0373
 5525W        W15785  12.840  11.380   6.959 -0.2389 -0.1162 -0.1397
 5526W        W15786   4.657   1.494   7.108  0.1113  0.2729  0.1630
 5527W        W15787   3.055  16.399   0.796  0.2733 -0.0721  0.3087
 5528W        W15788   3.154  11.034   6.671  0.0534  0.2576  0.1672
 5529W        W15789   0.241  14.660   1.100 -0.0837  0.1302  0.1304
 5530W        W15790   0.335  14.379   1.991  0.1498 -0.1759  0.0502
 5531W        W15791  11.720  11.310   1.004 -0.1094 -0.0418 -0.1716
 5532W        W15792  15.510  16.013   5.964  0.1569 -0.0883 -0.0322
 5533W        W15793   4.975  10.371   7.916 -0.1026  0.1244 -0.0005
 5534W        W15794   0.558  13.039   1.781  0.0724 -0.1183 -0.0158
 5535W        W15795  16.468   3.945   6.599  0.0875  0.2330  0.0682
 5536W        W15796  12.561  13.927   0.608  0.1126 -0.0019 -0.2415
 5537W        W15797  13.139  15.454   5.758 -0.1559 -0.1785  0.0329
 5538W        W15798  15.410   8.460   7.630  0.0790  0.0360 -0.1931
 5539W        W15799  16.578  11.104   1.351 -0.1079  0.0487 -0.2686
 5540W        W15800  11.838  15.175   1.099  0.1230  0.0612 -0.0056
 5541W        W15801  15.882  15.324   1.036  0.0749  0.1177  0.1082
 5542W        W15802  12.719  10.156   7.528  0.2648 -0.2875  0.2411
 5543W        W15803  15.196   2.296   1.496  0.0064 -0.0724  0.2587
 5544W        W15804  16.267  12.428   7.539 -0.1773  0.3874  0.0393
 5545W        W15805   2.155  13.120   8.255 -0.1586 -0.1241 -0.5713
 5546W        W15806  15.094   8.873   6.826  0.1746  0.0168 -0.0004
 5547W        W15807  14.823   4.179   1.824 -0.1088 -0.1680 -0.0700
 5548W        W15808  11.266   4.783   2.406  0.0043 -0.0201  0.2822
 5549W        W15809  15.626  13.578   6.450  0.0551 -0.1253  0.0993
 5550W        W15810  11.731   2.433   0.994 -0.0202 -0.0383  0.2166
 5551W        W15811  14.294   0.526   6.835 -0.0992  0.1653 -0.2802
 5552W        W15812   0.283  13.171   2.187 -0.0269  0.3221 -0.0757
 5553W        W15813   1.709  13.097   8.542 -0.2451 -0.0229  0.0090
 5554W        W15814   1.537  14.160   8.087  0.1145 -0.0370 -0.1599
 5555W        W15815  14.952  14.281   8.216  0.0844  0.0096 -0.1663
 5556W        W15816  10.236   0.224   8.673  0.2809 -0.1264 -0.0737
 5557W        W15817  13.486  15.598   1.125  0.0725  0.0217 -0.2500
 5558W        W15818  11.186  15.441   7.238  0.1786  0.0051 -0.1515
 5559W        W15819   0.734   1.105   6.873  0.0040 -0.0730  0.0660
 5560W        W15820  12.386  15.462   1.961 -0.1890 -0.3350 -0.1509
 5561W        W15821   4.098  13.066   8.671 -0.0493 -0.0899  0.2192
 5562W        W15822   2.356   9.873   1.322  0.0601 -0.1748  0.2934
 5563W        W15823  12.048  12.796   0.956  0.3799 -0.0002 -0.0344
 5564W        W15824  11.709  12.323   7.008  0.0878  0.0386  0.3079
 5565W        W15825   0.905   1.463   1.985  0.3355  0.0717  0.0484
 5566W        W15826   0.235  12.328   6.266  0.0417  0.0015 -0.1093
 5567W        W15827   4.265  15.142   6.533 -0.1849  0.1671 -0.1353
 5568W        W15828   8.556   2.006   1.207  0.0555  0.4354 -0.1237
 5569W        W15829  15.907  13.046   1.398 -0.0134 -0.2918  0.2512
 5570W        W15830   2.362  12.268   0.729 -0.2728  0.2144  0.1574
 5571W        W15831   3.239  15.877   0.500 -0.1849  0.2612  0.0097
 5572W        W15832  14.252   2.045   1.218 -0.0751 -0.0425  0.0058
 5573W        W15833   1.276   3.389   7.606  0.0224 -0.0777  0.0228
 5574W        W15834   3.967  13.176   8.210 -0.3888  0.1169  0.2759
 5575W        W15835   0.677  14.978   1.407 -0.2888 -0.0472  0.0342
 5576W        W15836   1.669   1.482   1.212 -0.0381  0.2135 -0.1385
 5577W        W15837   4.585   4.480   6.057  0.0255 -0.0385 -0.2319
 5578W        W15838   2.173   1.434   0.920 -0.2655 -0.1915 -0.0245
 5579W        W15839   1.031  13.799   0.190 -0.1289  0.0961 -0.0079
 5580W        W15840  15.294   1.920   7.099 -0.0314  0.1650 -0.0322
 5581W        W15841   1.878   2.534   6.623 -0.1503  0.1468  0.0191
 5582W        W15842   2.807   3.499   8.627 -0.2629  0.1509  0.1896
 5583W        W15843   5.468  15.156   6.699  0.3170 -0.2975 -0.1591
 5584W        W15844  14.199   1.907   7.522 -0.2081 -0.0662 -0.2906
 5585W        W15845  12.192  15.870   1.580  0.1115 -0.4596 -0.2316
 5586W        W15846  14.921   7.025   1.970 -0.2148  0.0248 -0.0990
 5587W        W15847   4.553   2.541   8.582  0.3983  0.0188 -0.0707
 5588W        W15848   8.246  13.779   2.366  0.0085  0.1507 -0.1347
 5589W        W15849   1.847   6.048   1.239  0.1021 -0.1856  0.3304
 5590W        W15850  12.577  12.754   1.436 -0.0134  0.1281  0.2168
 5591W        W15851  15.618  16.053   0.639 -0.4521 -0.2113  0.1979
 5592W        W15852   0.773   3.296   6.624  0.0076  0.0622  0.2526
 5593W        W15853   4.485   1.923   1.885 -0.0981  0.4220 -0.0580
 5594W        W15854   5.173   3.451   7.310 -0.0303  0.0053  0.0699
 5595W        W15855   7.483   7.630   7.393  0.3247  0.0340  0.0544
 5596W        W15856   8.113   2.626   2.003  0.0101  0.1158 -0.1175
 5597W        W15857   6.034  14.925   6.834  0.0273 -0.1394 -0.2056
 5598W        W15858   0.338   2.120   6.953  0.1671 -0.0095  0.0838
 5599W        W15859   4.095   0.770   1.090  0.2846  0.2408  0.3098
 5600W        W15860  10.263  13.593   7.303  0.3716 -0.0916 -0.3309
 5601W        W15861   1.283   1.879   6.452  0.0046 -0.1071  0.3366
 5602W        W15862   5.047   4.305   7.443  0.0329  0.0777  0.1085
 5603W        W15863   3.668  15.228   2.266  0.0009 -0.2138 -0.0140
 5604W        W15864   2.778   0.634   1.363 -0.0579 -0.0178 -0.0101
 5605W        W15865   3.119   4.022   7.179  0.0737 -0.1583 -0.1852
 5606W        W15866   3.720  14.765   8.546  0.1383  0.0301  0.1608
 5607W        W15867   8.064   4.293   0.906 -0.0351  0.2035 -0.0630
 5608W        W15868   5.101  16.337   7.768 -0.4094 -0.0338 -0.0416
 5609W        W15869   4.855   4.620   6.912  0.0679  0.0437 -0.2708
 5610W        W15870   4.197   4.699   8.310 -0.3003 -0.0629  0.0597
 5611W        W15871   3.760   5.587   7.963  0.2848 -0.0246  0.0106
 5612W        W15872   9.503   7.691   2.090  0.0768  0.3410  0.1236
 5613W        W15873   4.197  14.088   1.991 -0.1771 -0.2945  0.1017
 5614W        W15874   4.695  15.599   1.392  0.3261 -0.1229  0.3554
 5615W        W15875   1.947  15.153   2.228  0.0994  0.1709  0.1990
 5616W        W15876  13.193   3.216   0.386  0.3018  0.0370  0.2390
 5617W        W15877   3.069  14.283   0.618 -0.2246  0.0114 -0.1549
 5618W        W15878   3.338  15.183   0.034  0.1545  0.0687 -0.0617
 5619W        W15879   3.628  15.107   7.658  0.0340  0.0713 -0.2368
 5620W        W15880   1.510  16.227   1.501  0.2876  0.1256  0.0442
 5621W        W15881   2.726  14.339   2.820 -0.1410  0.2770 -0.0573
 5622W        W15882   7.124  15.511   1.336  0.3209 -0.0346 -0.0156
 5623W        W15883  11.189   7.368   2.278 -0.0877 -0.0098 -0.1004
 5624W        W15884   7.658   0.254   6.722 -0.2772  0.0804 -0.2723
 5625W        W15885  11.900   3.846   8.225 -0.3405 -0.4804  0.4235
 5626W        W15886   9.148   2.748   7.004 -0.0498 -0.1801  0.1841
 5627W        W15887   1.874   9.758   7.794 -0.0400 -0.2181  0.0616
 5628W        W15888  10.526  16.372   6.599 -0.1039  0.0337  0.2195
 5629W        W15889   8.209   5.887   7.225 -0.2062 -0.1736  0.0768
 5630W        W15890   6.056   8.965   6.474 -0.1872  0.0436 -0.3815
 5631W        W15891   0.799   0.952   2.047 -0.1346 -0.1879 -0.1697
 5632W        W15892   7.653  14.927   1.602  0.2575  0.0547 -0.0940
 5633W        W15893  15.066   2.697   1.182 -0.1832 -0.4409  0.2834
 5634W        W15894  11.367  16.490   8.043  0.1391  0.0633 -0.2599
 5635W        W15895  12.033  16.257   0.555 -0.0912 -0.1049 -0.2446
 5636W        W15896  14.819  15.145   1.758  0.1638  0.1674 -0.3458
 5637W        W15897   6.408  16.032   6.578 -0.0364 -0.2004  0.1329
 5638W        W15898   5.650   6.484   8.502 -0.0115 -0.0322 -0.0104
 5639W        W15899   7.846   5.013   7.269 -0.0122 -0.0724  0.0500
 5640W        W15900   7.163   6.030   7.002  0.2423  0.2807  0.1096
 5641W        W15901  12.002   1.509   0.949 -0.1279 -0.1042 -0.1661
 5642W        W15902   7.006  10.937   6.884 -0.1594  0.1497 -0.0504
 5643W        W15903  10.936  15.909   7.243  0.1352 -0.0191 -0.1939
 5644W        W15904  11.642   0.341   0.028 -0.1620  0.1027  0.3925
 5645W        W15905   8.859   2.988   1.356  0.2419 -0.0857  0.2483
 5646W        W15906  12.092   3.728   7.233 -0.3268  0.1427 -0.1906
 5647W        W15907  12.538   1.426   0.291 -0.0931  0.2031  0.1896
 5648W        W15908  12.696   8.702   1.970  0.2327  0.2285  0.4184
 5649W        W15909  13.145  11.181   6.553 -0.0851  0.1577  0.2460
 5650W        W15910  14.327   7.502   8.583 -0.0656 -0.3973 -0.0235
 5651W        W15911  12.389   4.775   0.839 -0.2983 -0.0396  0.1711
 5652W        W15912  11.400   4.259   0.011  0.0761 -0.1576 -0.1819
 5653W        W15913  13.053   4.840   6.597 -0.0188 -0.1242 -0.1091
 5654W        W15914   9.635   2.457   1.067  0.2232  0.3237  0.0964
 5655W        W15915  10.243   3.614   1.422  0.2086 -0.3632 -0.1889
 5656W        W15916  10.195   3.464   1.928 -0.1383 -0.2335 -0.1283
 5657W        W15917  12.068  14.392   6.889 -0.0209 -0.0048 -0.1548
 5658W        W15918  14.145   4.293   1.328 -0.0001 -0.0653  0.1762
 5659W        W15919  14.221  11.604   0.610  0.1528  0.0692  0.0734
 5660W        W15920   7.888   2.157   2.659 -0.0049  0.1612 -0.2676
 5661W        W15921  16.572   2.353   7.691  0.1763  0.0369  0.1439
 5662W        W15922   8.964   3.384   0.939  0.0032  0.2704 -0.0318
 5663W        W15923  11.787  11.205   0.513 -0.0900 -0.0720  0.2594
 5664W        W15924  10.116   7.202   0.709 -0.1055 -0.1929  0.0221
 5665W        W15925  15.398  13.710   0.422 -0.0808  0.1995  0.1669
 5666W        W15926  15.000   5.275   0.001  0.2513  0.2378  0.1026
 5667W        W15927  13.244   2.684   6.674 -0.0138 -0.2452  0.0728
 5668W        W15928   0.909   4.248   7.415  0.2554  0.2035  0.1429
 5669W        W15929   9.794   5.984   0.042 -0.2556 -0.1062 -0.0536
 5670W        W15930   8.469   1.380   1.047 -0.0485 -0.2313 -0.2004
 5671W        W15931   7.406  16.342   8.066 -0.0395 -0.0604 -0.1289
 5672W        W15932  16.034  13.004   0.840  0.2688 -0.0952  0.0808
 5673W        W15933  11.915   0.036   7.123 -0.1635  0.3018  0.2654
 5674W        W15934  15.014   2.038   1.069  0.0970 -0.0031  0.1724
 5675W        W15935  11.745   2.355   2.857  0.1565  0.0255  0.1039
 5676W        W15936  10.836  13.126   0.514 -0.2851 -0.0820  0.0409
 5677W        W15937   4.204   2.250   2.078 -0.3274 -0.0102  0.1302
 5678W        W15938  12.407   3.987   0.289  0.1003  0.0003  0.1662
 5679W        W15939   8.242  14.770   6.514  0.2975 -0.1666 -0.4483
 5680W        W15940  11.216   6.296   2.422 -0.3718  0.1902 -0.1437
 5681W        W15941  14.856   5.157   7.781  0.0678 -0.0738  0.2915
 5682W        W15942   0.144   2.022   2.455 -0.1520  0.3171 -0.0114
 5683W        W15943  16.364   6.032   0.164  0.2100 -0.0138  0.1951
 5684W        W15944   1.782   4.715   6.072  0.3826  0.0432 -0.0273
 5685W        W15945  16.372  12.915   0.279 -0.0697  0.2395 -0.0849
 5686W        W15946   5.426   1.404   8.521  0.0152  0.0124  0.1067
 5687W        W15947   3.013   1.652   0.696  0.0371  0.1584  0.0045
 5688W        W15948   2.225   7.782   7.777  0.0533 -0.0521 -0.0288
 5689W        W15949  14.325   2.755   1.640  0.1373  0.1754 -0.0802
 5690W        W15950  15.432   1.554   8.177  0.0166 -0.0294  0.0344
 5691W        W15951   1.030   2.615   6.722 -0.0640 -0.1574 -0.3531
 5692W        W15952   1.124   3.446   6.962 -0.0241  0.0457 -0.0307
 5693W        W15953  15.880  13.806   6.870  0.1662 -0.1874 -0.1103
 5694W        W15954  15.430   8.419   1.644 -0.0098  0.0422 -0.2519
 5695W        W15955   0.118   7.958   1.315  0.0975 -0.1413 -0.1389
 5696W        W15956   4.616   6.439   0.220 -0.1237  0.5122 -0.0449
 5697W        W15957  11.457   1.356   1.099 -0.0916 -0.1919  0.1022
 5698W        W15958   0.326   3.758   1.595  0.2246  0.0929  0.0509
 5699W        W15959  13.962   5.958   7.220 -0.0539 -0.0370 -0.3629
 5700W        W15960  14.234   7.063   8.334  0.0747 -0.0763  0.0621
 5701W        W15961   1.915   6.909   7.513 -0.2110 -0.0744  0.1546
 5702W        W15962  16.074   5.706   2.369 -0.0665  0.0564 -0.1117
 5703W        W15963   0.207  15.208   8.427  0.2553  0.0696  0.1976
 5704W        W15964   2.480   4.664   7.222 -0.0353  0.0506 -0.1099
 5705W        W15965  14.554   6.061   0.210 -0.1023  0.3167 -0.1359
 5706W        W15966   0.130   2.581   6.845  0.2052  0.0102  0.1627
 5707W        W15967   0.060   1.396   8.421 -0.2738  0.1514  0.1701
 5708W        W15968   2.348   0.517   7.321  0.0216 -0.0518  0.3136
 5709W        W15969  13.524   1.892   6.901  0.2394  0.2413  0.1894
 5710W        W15970   3.778   4.254   6.511 -0.1817 -0.4200  0.1082
 5711W        W15971   5.488   2.600   6.338  0.1924 -0.1875 -0.1176
 5712W        W15972   1.029   4.899   0.370  0.0764  0.3040  0.3447
 5713W        W15973   6.311   0.730   7.442 -0.1937 -0.2161 -0.2306
 5714W        W15974   5.504   4.499   7.555  0.0721 -0.3279  0.0003
 5715W        W15975  16.404   5.543   1.019  0.0254  0.0638 -0.0177
 5716W        W15976   3.765   4.394   6.972  0.0444 -0.1990 -0.1017
 5717W        W15977   2.214   7.715   1.807  0.1711  0.3496 -0.1024
 5718W        W15978   1.994  10.660   1.023  0.1493  0.1574  0.0762
 5719W        W15979   5.884   8.173   8.034  0.2268 -0.1053 -0.2691
 5720W        W15980   4.411   9.390   6.974  0.1184  0.0045  0.1416
 5721W        W15981  16.376   2.586   0.808  0.1532 -0.1572  0.2012
 5722W        W15982   5.102   3.748   2.344 -0.0694 -0.2192 -0.0121
 5723W        W15983   3.958   4.571   0.891  0.0628  0.1840  0.0703
 5724W        W15984   8.122   4.835   6.411 -0.0627 -0.2224  0.1171
 5725W        W15985  16.126   8.060   7.044  0.0646 -0.1448 -0.0528
 5726W        W15986  11.400   7.530   1.006  0.1920 -0.1107  0.0596
 5727W        W15987   8.655   9.936   8.285 -0.1211 -0.0872 -0.0122
 5728W        W15988  15.832   2.010   7.905 -0.0424  0.1811 -0.0542
 5729W        W15989   5.150   5.334   8.110  0.1248 -0.0571  0.1341
 5730W        W15990   1.550   5.494   0.876 -0.2632  0.1613 -0.0172
 5731W        W15991   6.164   5.317   6.802 -0.1742  0.1088  0.0642
 5732W        W15992   4.373   4.215   8.177 -0.0439  0.0200  0.3800
 5733W        W15993   0.153   2.080   8.062 -0.2770  0.0319 -0.0292
 5734W        W15994   5.176   0.945   1.261  0.1160 -0.0724 -0.0062
 5735W        W15995   1.030   6.557   1.923 -0.0176  0.1403  0.0092
 5736W        W15996  13.785   8.936   7.412  0.0546  0.1972  0.0308
 5737W        W15997   3.802   5.210   7.613 -0.0536 -0.2547  0.0605
 5738W        W15998   9.415   4.914   6.360  0.1006 -0.0794 -0.0259
 5739W        W15999   5.845  15.673   7.902 -0.0176 -0.1839 -0.1490
 5740W        W16000   3.580   7.071   0.747 -0.2316 -0.0180  0.1941
 5741W        W16001   7.669   5.759   2.697  0.1374 -0.0314 -0.0139
 5742W        W16002   3.395   8.246   7.145 -0.0242 -0.3961  0.0776
 5743W        W16003   3.014   5.320   7.161  0.1430  0.3008  0.0575
 5744W        W16004   8.976   3.092   8.306  0.1531 -0.0042 -0.3061
 5745W        W16005   1.460   5.696   6.694 -0.0906  0.2019  0.1362
 5746W        W16006   7.568   6.009   0.807 -0.0241 -0.4124 -0.2762
 5747W        W16007   5.324  13.096   7.316  0.0650 -0.0988 -0.0510
 5748W        W16008   5.536   3.346   6.125 -0.1391  0.0286  0.1079
 5749W        W16009   9.961  16.527   2.130 -0.0077  0.0257  0.3563
 5750W        W16010   4.274   6.782   0.086 -0.0273 -0.1336 -0.1072
 5751W        W16011   7.754   6.754   2.118  0.2666  0.0650 -0.1517
 5752W        W16012   0.709  11.188   0.245  0.2959 -0.1109 -0.2760
 5753W        W16013   4.092   3.122   7.380 -0.4474 -0.1546 -0.0382
 5754W        W16014   3.635  15.291   1.418  0.1297  0.0550 -0.1200
 5755W        W16015   7.453   9.227   0.706  0.2896 -0.0724  0.0600
 5756W        W16016   9.055   1.693   0.966 -0.2375  0.1212  0.1172
 5757W        W16017   6.321   5.229   0.861  0.2313  0.0860  0.0119
 5758W        W16018  13.045   9.716   7.566 -0.1389  0.1401  0.0228
 5759W        W16019   7.395   6.424   6.704 -0.0393 -0.0169  0.0101
 5760W        W16020   1.646  15.380   1.072 -0.1178 -0.0693 -0.0613
 5761W        W16021  10.795   0.813   1.631 -0.0775  0.1146 -0.0938
 5762W        W16022   4.676   6.280   0.707  0.1517 -0.1342  0.1148
 5763W        W16023   4.425   2.366   1.084 -0.0684 -0.6871  0.1167
 5764W        W16024  16.371   3.531   6.961  0.3283  0.1988 -0.3572
 5765W        W16025  10.368   7.550   1.727  0.0627 -0.2861 -0.2059
 5766W        W16026  10.337  15.515   7.579 -0.1294 -0.2591 -0.0965
 5767W        W16027  12.061  14.200   8.503 -0.4370 -0.2245  0.3872
 5768W        W16028   4.568   0.526   7.453  0.2169  0.0217  0.1153
 5769W        W16029   9.180   3.190   0.470 -0.2362  0.1236 -0.3971
 5770W        W16030  15.327  10.294   2.122 -0.1457 -0.1028  0.0969
 5771W        W16031  12.416   5.840   7.696  0.2688  0.2509 -0.3571
 5772W        W16032   2.417   6.631   7.874  0.0110  0.0331 -0.3131
 5773W        W16033   8.168  12.742   6.181  0.0068 -0.0007  0.0910
 5774W        W16034   4.499  10.305   6.778  0.2914 -0.0455  0.1377
 5775W        W16035   7.985   7.109   0.109 -0.1706  0.0452 -0.3374
 5776W        W16036   8.750   2.271   0.743  0.1459  0.1638  0.0056
 5777W        W16037   9.500   6.029   2.561  0.3680  0.2509 -0.1613
 5778W        W16038  11.173   3.594   6.912 -0.1312  0.2743 -0.0255
 5779W        W16039   6.235  16.568   0.711 -0.0569 -0.2050  0.3067
 5780W        W16040   2.054  14.479   7.476 -0.0740  0.1980 -0.1092
 5781W        W16041   8.524   5.893   5.872 -0.0428 -0.0943 -0.0395
 5782W        W16042   6.774   6.954   1.749 -0.0408 -0.3586 -0.1715
 5783W        W16043   9.976   9.219   7.828 -0.0194 -0.2169 -0.1084
 5784W        W16044  15.757   5.587   7.278  0.1231 -0.0541  0.0756
 5785W        W16045   4.183   1.318   0.503 -0.1713 -0.2177  0.2673
 5786W        W16046  13.365   8.316   1.566  0.0574  0.0074  0.2287
 5787W        W16047  15.769  10.958   0.907 -0.1200 -0.1140  0.0348
 5788W        W16048  10.766   4.477   0.163 -0.1789 -0.3844  0.0449
 5789W        W16049  14.951   5.980   7.180  0.1476 -0.1121 -0.3150
 5790W        W16050  12.959   0.041   0.448 -0.0672 -0.0543 -0.0172
 5791W        W16051  11.786   7.491   1.735  0.4067 -0.0903  0.0407
 5792W        W16052   2.687   7.525   7.759  0.2452 -0.1853 -0.1778
 5793W        W16053  12.129   6.950   6.657 -0.2701  0.2446  0.3089
 5794W        W16054  10.290   6.634   7.167 -0.0371 -0.4482  0.1303
 5795W        W16055  12.244   8.487   5.956  0.3504  0.2457 -0.0845
 5796W        W16056   4.409  10.468   8.032  0.0538 -0.0664 -0.0893
 5797W        W16057  15.006  10.126   1.610  0.0353  0.0101  0.1023
 5798W        W16058  15.877   5.102   0.526  0.1448  0.1637 -0.0804
 5799W        W16059  14.672   0.513   1.257 -0.0515  0.0220  0.2490
 5800W        W16060  12.002   7.924   1.615  0.1531 -0.2151  0.1020
 5801W        W16061  13.393   5.624   6.486 -0.2835 -0.2092 -0.1134
 5802W        W16062  13.426   4.042   2.109 -0.1593  0.0531  0.2098
 5803W        W16063  15.544   4.085   8.154 -0.2454 -0.0350  0.0486
 5804W        W16064   7.267   2.064   1.002  0.0128 -0.0338 -0.1199
 5805W        W16065   7.824   2.799   8.060 -0.0585  0.2257 -0.0322
 5806W        W16066  13.673   8.694   1.755 -0.1887  0.1366 -0.1015
 5807W        W16067  12.956   7.845   7.285 -0.1815  0.2409 -0.1345
 5808W        W16068  14.914  11.967   0.185 -0.1803 -0.1477 -0.0205
 5809W        W16069   8.369  15.763   6.954 -0.0838  0.0542 -0.0620
 5810W        W16070  10.632   6.060   7.301 -0.0429 -0.4098 -0.4649
 5811W        W16071   4.034   1.647   6.960  0.1071  0.0427 -0.0211
 5812W        W16072  11.419   8.249   1.946  0.0379 -0.0083  0.2350
 5813W        W16073  15.009   4.096   6.264 -0.3162  0.1542  0.0288
 5814W        W16074   5.990   2.917   7.519  0.0045 -0.1222  0.1462
 5815W        W16075  14.279   5.511   1.593  0.0925  0.1788 -0.3045
 5816W        W16076   4.555   3.656   1.214  0.4095 -0.1368 -0.0128
 5817W        W16077  14.789   1.547   6.050  0.0585  0.1045  0.2037
 5818W        W16078   2.852   6.339   0.878 -0.5117  0.0712 -0.2712
 5819W        W16079  15.610   5.365   0.066 -0.0086 -0.1504 -0.0355
 5820W        W16080  10.216   3.657   6.938 -0.2111  0.0225  0.1007
 5821W        W16081  16.241   7.913   0.408  0.0831  0.0786 -0.1613
 5822W        W16082  13.274   8.818   1.403  0.0745 -0.1729  0.0105
 5823W        W16083  13.852  13.869   8.382  0.2192  0.0144  0.0137
 5824W        W16084   1.995   2.682   2.266 -0.0527  0.0241 -0.0965
 5825W        W16085   2.627  16.207   8.406 -0.0016  0.0985 -0.5611
 5826W        W16086  10.607   2.743   8.365  0.1715 -0.0232  0.0762
 5827W        W16087   0.737   7.163   1.237 -0.1306  0.0722 -0.2239
 5828W        W16088  13.256   3.582   7.456  0.1864  0.1734 -0.2414
 5829W        W16089  13.994   2.543   2.493 -0.0266 -0.3858 -0.1704
 5830W        W16090  14.402   3.489   0.667  0.1371  0.0611 -0.6141
 5831W        W16091   1.665   6.215   0.093 -0.1504  0.0828  0.1340
 5832W        W16092   0.192   0.340   0.881 -0.3172 -0.0942  0.1203
 5833W        W16093   0.797  15.835   0.392 -0.2543  0.0922 -0.1966
 5834W        W16094   1.201  15.893   6.382 -0.0951 -0.0462 -0.0386
 5835W        W16095   2.225   8.447   8.293  0.0659 -0.0978  0.2947
 5836W        W16096   0.192  11.179   0.868  0.3112 -0.0404  0.1469
 5837W        W16097  16.468   8.337   6.779 -0.1942 -0.2678 -0.3633
 5838W        W16098  14.662   9.316   7.624  0.0662  0.0576 -0.0339
 5839W        W16099  14.681   9.252   1.619 -0.3747  0.4248  0.3705
 5840W        W16100  11.295   3.306   0.125 -0.0672 -0.1071  0.0125
 5841W        W16101   4.116  12.543   7.169 -0.3889 -0.0079  0.1481
 5842W        W16102   4.689  16.063   7.505  0.1830  0.0474 -0.2623
 5843W        W16103  12.197   9.241   6.625  0.0074  0.3580 -0.1154
 5844W        W16104   3.408  11.486   6.741  0.4785 -0.2056  0.1211
 5845W        W16105  13.512   8.430   7.581 -0.0009  0.1767  0.1574
 5846W        W16106  10.036   6.351   1.464  0.3184  0.1407 -0.1435
 5847W        W16107   1.439   9.937   8.299 -0.1335 -0.0333 -0.0244
 5848W        W16108   0.483   9.000   7.367 -0.0606  0.2976  0.1311
 5849W        W16109   1.189  12.363   8.403  0.2133  0.2443  0.3500
 5850W        W16110   2.787   5.361   5.876 -0.1143 -0.1856 -0.0828
 5851W        W16111   0.295   8.383   0.978 -0.1450  0.0687  0.0559
 5852W        W16112   2.474   6.950   0.967 -0.0403  0.3580  0.1789
 5853W        W16113  11.243   9.703   7.780 -0.0365  0.0066  0.0155
 5854W        W16114   6.320  13.850   6.427  0.4611  0.1923  0.0750
 5855W        W16115   2.486  11.874   8.495 -0.1349 -0.2808 -0.3807
 5856W        W16116   0.124   5.681   8.096 -0.0676 -0.1151 -0.0004
 5857W        W16117   4.569   0.876   8.547  0.0486 -0.3498 -0.0401
 5858W        W16118   1.589  14.496   1.803  0.1443  0.0085 -0.1013
 5859W        W16119  16.171   9.708   1.175  0.3094 -0.0140  0.0555
 5860W        W16120   0.224   5.261   6.948  0.0429  0.3748 -0.3059
 5861W        W16121   1.129   4.940   8.278  0.1729 -0.0824 -0.1434
 5862W        W16122   2.684  11.972   6.683 -0.0060  0.0901 -0.0441
 5863W        W16123  10.499   8.937   0.301 -0.1773 -0.0936 -0.0085
 5864W        W16124  10.660  13.513   7.737  0.1676 -0.1850 -0.0086
 5865W        W16125   8.776   7.633   8.436 -0.2597  0.1517  0.2407
 5866W        W16126   3.468   8.865   6.619  0.2805 -0.1987  0.0326
 5867W        W16127   1.600   4.623   6.907 -0.0709 -0.2706  0.0879
 5868W        W16128   9.864  12.621   6.111 -0.1285 -0.1558  0.0717
 5869W        W16129  15.092   7.183   7.726 -0.2326 -0.1019  0.0327
 5870W        W16130   8.894  10.282   8.628  0.2123  0.0529 -0.3073
 5871W        W16131   7.443  12.544   0.455 -0.1856 -0.0502 -0.1615
 5872W        W16132   5.032   9.947   1.232  0.3050 -0.1085  0.0798
 5873W        W16133   6.602   3.452   0.059 -0.0478  0.0400 -0.0343
 5874W        W16134   0.616  10.450   1.889 -0.1191 -0.1929 -0.1439
 5875W        W16135   5.939   3.564   7.101 -0.1985 -0.1980 -0.2198
 5876W        W16136  13.912  11.784   0.941  0.0074  0.1144  0.0148
 5877W        W16137   3.669  14.786   1.481 -0.0959 -0.1049 -0.2949
 5878W        W16138   0.988  16.361   0.733 -0.1176  0.0831 -0.0398
 5879W        W16139  11.844  11.707   0.580 -0.0378 -0.3633 -0.2301
 5880W        W16140   5.248   3.528   1.877 -0.3370  0.0506 -0.2560
 5881W        W16141  15.814   8.480   7.937  0.1688  0.1309  0.3947
 5882W        W16142   6.540  12.065   0.613  0.2832 -0.4429  0.1471
 5883W        W16143   0.573  15.456   7.860  0.1357  0.0474  0.0125
 5884W        W16144   5.531   8.728   6.548 -0.2737 -0.0062 -0.1859
 5885W        W16145  14.617  12.009   7.870  0.2655  0.0449 -0.0834
 5886W        W16146   4.996   3.099   7.808  0.0489 -0.3981  0.0256
 5887W        W16147  11.061   0.214   0.575 -0.0130  0.2137  0.0185
 5888W        W16148   8.855   7.440   0.588 -0.0423 -0.1000  0.2424
 5889W        W16149   7.305  12.298   5.672 -0.0737 -0.1484  0.4130
 5890W        W16150  16.176  13.085   7.758  0.1604 -0.1503  0.0994
 5891W        W16151  11.082  13.106   6.916 -0.1314  0.0044  0.2035
 5892W        W16152   9.785   8.314   0.996  0.4512 -0.2533  0.1055
 5893W        W16153   3.844  12.275   0.015 -0.0992  0.0057  0.2176
 5894W        W16154   6.432  11.391   8.482 -0.2776  0.3692  0.1227
 5895W        W16155   7.582   8.907   8.518 -0.2519 -0.1063  0.3478
 5896W        W16156  11.706   8.888   0.076 -0.1469 -0.0970 -0.1499
 5897W        W16157   5.585   8.809   1.679 -0.0722  0.0577  0.3027
 5898W        W16158   9.671   2.965   5.920 -0.0769 -0.3401  0.1160
 5899W        W16159   6.984  11.768   7.948 -0.1321  0.1795  0.1087
 5900W        W16160   9.418   1.931   8.635  0.1545  0.0935  0.1342
 5901W        W16161   9.931   2.528   7.209 -0.1441  0.1127  0.1355
 5902W        W16162   9.247   8.066   1.068 -0.0683  0.1025  0.1985
 5903W        W16163   8.968  14.964   1.065  0.1626 -0.1512 -0.1231
 5904W        W16164   8.411   5.157   7.945 -0.2563 -0.1172  0.2287
 5905W        W16165   1.195   6.116   0.167 -0.6202  0.2935 -0.1065
 5906W        W16166   6.917   8.762   1.844  0.0038 -0.1843 -0.1484
 5907W        W16167  12.325   8.820   7.414 -0.0864 -0.1714 -0.0421
 5908W        W16168  11.814   6.588   6.855 -0.0467  0.1040  0.0238
 5909W        W16169   9.578  14.123   8.178 -0.1018 -0.0476  0.1344
 5910W        W16170  13.051   4.970   1.735 -0.0863 -0.2632 -0.0500
 5911W        W16171  11.336   4.428   1.631  0.2911 -0.0940  0.2429
 5912W        W16172   9.831  10.277   1.108 -0.1094  0.0239  0.1037
 5913W        W16173   4.737   8.678   8.375 -0.0784 -0.0141 -0.2999
 5914W        W16174   9.071  10.864   7.402 -0.0675  0.0892 -0.4770
 5915W        W16175   8.865  16.206   0.049 -0.0171 -0.0001  0.3984
 5916W        W16176  12.419   7.684   0.352  0.4442 -0.0844 -0.0273
 5917W        W16177   6.751   5.928   1.935  0.1630  0.1740 -0.1482
 5918W        W16178  16.075   3.570   8.675 -0.1419 -0.0971  0.0385
 5919W        W16179  13.203  11.609   7.699  0.0379  0.1057 -0.0489
 5920W        W16180   7.989   8.414   2.239 -0.0822  0.0400 -0.3243
 5921W        W16181   8.803   8.910   7.214 -0.1360  0.0574 -0.1152
 5922W        W16182   7.847   6.221   1.178 -0.2004 -0.2570  0.0335
 5923W        W16183   1.375  16.260   2.130 -0.1116 -0.1542  0.1375
 5924W        W16184  11.510   9.354   8.135 -0.0754  0.1975 -0.2041
 5925W        W16185  13.238  13.710   7.190 -0.0713 -0.4245 -0.0218
 5926W        W16186  10.987   6.873   7.451 -0.1395 -0.0816  0.0250
 5927W        W16187  13.871  14.733   7.261  0.0840 -0.0815 -0.2540
 5928W        W16188   9.173  12.093   0.552 -0.0247 -0.1045  0.0764
 5929W        W16189  12.967   2.442   0.606  0.0501  0.0110 -0.2216
 5930W        W16190   0.523  12.652   8.357 -0.2012  0.1525  0.0700
 5931W        W16191   6.741   6.129   7.343  0.0588 -0.3706  0.1690
 5932W        W16192  15.150   6.945   7.246  0.3921  0.3494  0.2036
 5933W        W16193   5.335   1.732   7.274 -0.2300  0.0161 -0.1061
 5934W        W16194  13.907   6.660   7.214 -0.2410 -0.0750 -0.1649
 5935W        W16195  11.279  12.278   0.674 -0.1385  0.1302  0.4128
 5936W        W16196  14.246   9.302   1.393 -0.1876 -0.1945 -0.0897
 5937W        W16197  12.325  14.465   1.116 -0.1690 -0.2831 -0.2419
 5938W        W16198  16.017  11.678   0.257 -0.2059 -0.0519  0.1732
 5939W        W16199  11.251   7.582   6.778  0.2669 -0.3035 -0.0637
 5940W        W16200  15.185  10.343   0.718  0.1377 -0.0554 -0.1175
 5941W        W16201  14.314   8.172   6.756 -0.2632  0.0663 -0.4193
 5942W        W16202  12.057  13.718   0.021  0.0281 -0.0268 -0.1354
 5943W        W16203   5.507   7.996   7.222 -0.1404  0.0237 -0.0649
 5944W        W16204  15.263  11.090   6.942  0.1173  0.1447  0.1001
 5945W        W16205   1.906   8.135   1.868 -0.0917  0.2982 -0.0909
 5946W        W16206  15.203  12.454   7.309 -0.2000  0.0440  0.1167
 5947W        W16207  10.480   4.776   8.422  0.1769 -0.1164  0.1350
 5948W        W16208  13.466   3.778   7.983  0.0319 -0.1456  0.1195
 5949W        W16209   0.060   3.716   7.744 -0.1722  0.2587  0.3799
 5950W        W16210  14.699   8.396   1.275 -0.1510 -0.0627 -0.0204
 5951W        W16211  11.068   8.157   0.662  0.1036 -0.1515 -0.3803
 5952W        W16212  13.610   6.965   1.738  0.0386  0.0564  0.2517
 5953W        W16213  11.374  16.334   1.051 -0.4185  0.1730  0.2099
 5954W        W16214   0.500   6.668   2.266 -0.1880  0.3532  0.0237
 5955W        W16215  15.064   6.587   6.822  0.0253  0.2556  0.1661
 5956W        W16216  16.416   6.576   1.182 -0.1750 -0.0296  0.4479
 5957W        W16217  16.049   4.251   7.434 -0.1897  0.1118  0.0580
 5958W        W16218   0.957  12.845   1.158  0.2002  0.1594  0.3128
 5959W        W16219   3.126  13.400   1.997  0.1295 -0.3454  0.2795
 5960W        W16220   1.968   6.651   7.066  0.0945 -0.1246 -0.6354
 5961W        W16221  12.308  11.899   8.565  0.1278  0.1421 -0.1202
 5962W        W16222  12.887   6.822   0.313  0.1105 -0.0506  0.0758
 5963W        W16223  14.212   9.819   1.382 -0.0741  0.4744 -0.1669
 5964W        W16224  15.301   5.879   7.992  0.1555  0.0723 -0.3115
 5965W        W16225   4.195  12.406   6.416 -0.1838  0.2101  0.0584
 5966W        W16226  15.454   1.518   1.058  0.1270  0.0736 -0.1141
 5967W        W16227   6.869   5.101   7.322  0.0031 -0.1696 -0.2141
 5968W        W16228  13.820   4.523   0.464 -0.1312  0.0603 -0.1410
 5969W        W16229   1.537  11.971   7.631  0.0419 -0.2060  0.0726
 5970W        W16230   3.252   4.220   0.621 -0.1554 -0.0657 -0.0978
 5971W        W16231   3.831   4.753   7.868 -0.1981 -0.1454 -0.1477
 5972W        W16232  13.657  12.438   7.598 -0.0293  0.0417  0.2061
 5973W        W16233  14.159  10.987   7.027  0.0502  0.0939  0.0629
 5974W        W16234   0.298  11.685   0.725  0.0463 -0.1112  0.0011
 5975W        W16235  11.252  15.991   0.228  0.0038  0.0332 -0.1186
 5976W        W16236  15.684   9.177   2.378 -0.1620  0.2016 -0.1909
 5977W        W16237   2.366  11.557   0.680 -0.0132  0.1505 -0.0462
 5978W        W16238  13.011  15.784   0.914  0.0714  0.1527 -0.1212
 5979W        W16239  14.842  11.243   1.477 -0.1790 -0.1064  0.2110
 5980W        W16240   2.532  13.320   0.313 -0.1241  0.0329 -0.1152
 5981W        W16241   1.815  10.786   6.394 -0.0692 -0.2930 -0.1242
 5982W        W16242   3.798  12.049   7.963  0.0592  0.1976  0.1728
 5983W        W16243  15.265   7.618   1.523  0.0379  0.1000  0.2586
 5984W        W16244  15.658   8.912   1.546  0.0066 -0.1030  0.1286
 5985W        W16245   0.662   5.481   8.569 -0.1317  0.1561 -0.1638
 5986W        W16246   5.341   4.262   6.580  0.1813  0.0710 -0.1861
 5987W        W16247   4.176   8.453   1.459 -0.0694 -0.4084  0.2747
 5988W        W16248   6.683  15.528   1.577 -0.1165  0.0477  0.2074
 5989W        W16249  15.789   7.004   1.079 -0.1830 -0.1650  0.3566
 5990W        W16250  12.754  13.437   8.099 -0.1952  0.0156 -0.0161
 5991W        W16251   0.100  15.212   0.291 -0.2738 -0.0372  0.1808
 5992W        W16252   4.935  13.350   1.085 -0.0782  0.5700  0.2961
 5993W        W16253   4.899  13.164   8.662 -0.0584 -0.1307  0.2175
 5994W        W16254   6.322  13.477   0.786  0.0271 -0.1247 -0.1328
 5995W        W16255   0.956  11.755   1.767 -0.2805  0.0752  0.0066
 5996W        W16256   2.102   8.743   7.200 -0.3309  0.0415  0.0715
 5997W        W16257   4.964   9.936   2.125  0.0598  0.3112  0.0554
 5998W        W16258   4.582  15.536   7.439  0.0242 -0.1514 -0.0065
 5999W        W16259   4.816   9.028   7.738  0.1102  0.1069 -0.0127
 6000W        W16260   5.455  10.949   1.946  0.1402  0.0140 -0.2233
 6001W        W16261   3.994   9.514   7.967  0.3453 -0.2550  0.0725
 6002W        W16262  15.587  11.239   7.762 -0.0224  0.1618  0.0190
 6003W        W16263   5.043  10.267   6.895 -0.3249  0.0692  0.2922
 6004W        W16264   4.807  11.366   1.312 -0.0859 -0.0029  0.0157
 6005W        W16265   3.951  11.744   8.372 -0.2132 -0.0522 -0.1397
 6006W        W16266   3.938   1.748   0.443  0.2317 -0.0755  0.0563
 6007W        W16267   2.430  12.691   0.546 -0.3538  0.0954 -0.1158
 6008W        W16268   4.959   6.254   1.542  0.0428 -0.2338 -0.0704
 6009W        W16269  15.175  11.601   7.595 -0.2795  0.0234  0.1956
 6010W        W16270   2.289  13.889   8.444  0.5981  0.1569 -0.0732
 6011W        W16271  13.665  16.290   7.146  0.0040  0.1730  0.0479
 6012W        W16272   3.593  12.060   0.412  0.0829 -0.2221 -0.0297
 6013W        W16273   5.667  10.276   8.001  0.2096 -0.1679  0.1713
 6014W        W16274   6.161   6.507   7.299  0.1632  0.3473 -0.1386
 6015W        W16275   4.782  15.465   0.387  0.1581 -0.0055 -0.0057
 6016W        W16276   3.537  15.616   0.852 -0.0576 -0.0918  0.0123
 6017W        W16277   6.610  11.372   1.430 -0.1563  0.0627  0.1458
 6018W        W16278   4.204  11.353   1.739 -0.1333  0.3187  0.1427
 6019W        W16279   5.633   8.922   0.808 -0.0604  0.1653 -0.3471
 6020W        W16280   7.896   7.698   7.146  0.1946  0.2212 -0.0609
 6021W        W16281   7.948  14.337   0.900 -0.0630 -0.0264 -0.0844
 6022W        W16282  14.162   8.473   1.535  0.0220  0.0895 -0.1236
 6023W        W16283   8.701   7.477   1.460 -0.1130 -0.0833 -0.2347
 6024W        W16284   5.896  16.236   0.186  0.0097 -0.0313  0.0184
 6025W        W16285  10.041   0.422   1.993 -0.0549  0.3971  0.4461
 6026W        W16286   5.970  10.025   8.342  0.1240 -0.1916 -0.1537
 6027W        W16287   9.140  14.974   0.616  0.3379 -0.0137  0.2499
 6028W        W16288  13.596   7.774   0.777 -0.0794  0.0730  0.0275
 6029W        W16289  12.987  11.286   1.304 -0.1728 -0.0098 -0.0267
 6030W        W16290  10.759  13.050   8.575 -0.1938 -0.3323 -0.0086
 6031W        W16291   4.774   9.783   1.644  0.3248 -0.0046  0.1774
 6032W        W16292   7.109  14.449   7.608  0.0967  0.1413 -0.2661
 6033W        W16293  10.765  14.646   0.879 -0.0696  0.3227 -0.0069
 6034W        W16294   6.347   3.687   7.897  0.0454 -0.1350  0.0039
 6035W        W16295  12.171  12.165   2.046  0.1024 -0.3392 -0.1571
 6036W        W16296   7.627  15.378   1.312 -0.0325 -0.0320  0.0576
 6037W        W16297  13.050  13.404   0.215 -0.1775  0.0669  0.3050
 6038W        W16298  12.344  12.778   0.011  0.0373 -0.2023  0.0714
 6039W        W16299   4.554  10.388   0.749 -0.0978  0.0950 -0.0096
 6040W        W16300  10.766   1.367   2.405  0.0559 -0.0332 -0.0611
 6041W        W16301   6.410  11.629   7.994 -0.2881  0.1469  0.0320
 6042W        W16302   8.601   2.022   6.002 -0.1319  0.0316  0.1590
 6043W        W16303  13.920   9.069   2.184 -0.1029 -0.0406  0.1751
 6044W        W16304  10.134  11.011   1.147  0.2610 -0.1661 -0.0168
 6045W        W16305  10.787   1.708   7.529 -0.2074 -0.0097  0.0115
 6046W        W16306  10.940  11.603   0.188 -0.0388  0.0783  0.0416
 6047W        W16307  15.953  12.492   1.378  0.0334 -0.0426 -0.2450
 6048W        W16308  16.289  15.073   8.219 -0.0738  0.0403  0.0773
 6049W        W16309   7.541   0.673   0.088 -0.0404 -0.2074  0.0495
 6050W        W16310   7.232  10.474   0.100 -0.0569  0.1600 -0.1485
 6051W        W16311  10.474  16.133   7.071 -0.0461 -0.1944  0.3720
 6052W        W16312  14.498  12.374   0.941 -0.1932  0.1176  0.2124
 6053W        W16313   6.979   4.749   0.411 -0.0084 -0.0538 -0.0157
 6054W        W16314   9.864  14.140   5.954  0.0683 -0.0257 -0.3517
 6055W        W16315   6.967  16.141   5.796 -0.2800  0.0273 -0.0965
 6056W        W16316  11.060   1.209   7.139 -0.0743 -0.1912 -0.1073
 6057W        W16317  12.438  13.067   6.402  0.1571  0.0577  0.0558
 6058W        W16318  13.772  10.584   7.070 -0.1440 -0.0320  0.0405
 6059W        W16319  14.807   7.616   7.251  0.0190 -0.0509 -0.0212
 6060W        W16320   8.369  12.964   7.424  0.0421  0.0475  0.0386
 6061W        W16321   0.428   4.184   2.164  0.3054  0.3610  0.0195
 6062W        W16322  14.328   3.991   1.768 -0.1528  0.0615 -0.2996
 6063W        W16323  14.542   9.605   8.050 -0.1730 -0.1017 -0.1122
 6064W        W16324  11.850  12.014   1.400 -0.0533 -0.1147 -0.0786
 6065W        W16325  10.266   5.479   7.987  0.0955 -0.3111 -0.0130
 6066W        W16326   6.448  12.413   1.638  0.2007  0.0843  0.0151
 6067W        W16327  12.836   8.993   7.374  0.0886 -0.1347 -0.0878
 6068W        W16328   9.362  15.368   0.319  0.4267  0.3624  0.1334
 6069W        W16329  12.044  15.981   7.753  0.1489 -0.0071 -0.0185
 6070W        W16330   9.675   9.603   8.598  0.2496  0.2261  0.2522
 6071W        W16331  13.236   8.627   8.572  0.0738  0.5539 -0.1578
 6072W        W16332  11.727  10.899   8.164  0.1593  0.2542 -0.0688
 6073W        W16333  14.558  15.667   8.399  0.0167  0.0422 -0.1252
 6074W        W16334  13.543  12.263   8.092  0.2458 -0.3211  0.0912
 6075W        W16335  12.623  15.951   1.211  0.2849  0.0671 -0.2634
 6076W        W16336  12.294   4.235   0.971  0.2856  0.1557  0.2203
 6077W        W16337   1.121   9.703   7.353  0.0351  0.1636 -0.1179
 6078W        W16338  12.273  10.072   7.369  0.0302 -0.0682 -0.1328
 6079W        W16339  14.571  15.503   2.049  0.0859 -0.1208 -0.2666
 6080W        W16340  13.360  14.604   1.507  0.2316 -0.0314 -0.1417
 6081W        W16341  11.357  14.286   7.060 -0.0478  0.2053 -0.0784
 6082W        W16342   3.320  12.638   7.723 -0.0217 -0.0484  0.0104
 6083W        W16343   0.392  11.296   7.510  0.0109 -0.1274  0.1100
 6084W        W16344  12.474  13.020   1.992  0.1322  0.2384  0.1708
 6085W        W16345   0.807  12.021   2.137 -0.0327  0.0548 -0.2353
 6086W        W16346   0.759  11.985   0.847 -0.0923  0.2364  0.1216
 6087W        W16347   0.347   7.546   1.540 -0.2056  0.3877 -0.1951
 6088W        W16348   1.034  12.840   7.777 -0.0048  0.0785  0.2400
 6089W        W16349  15.188  12.072   6.882  0.3164  0.2995  0.0461
 6090W        W16350   1.079  15.436   7.888  0.1777 -0.2039  0.1465
 6091W        W16351  10.210   2.837   7.634 -0.3047  0.1195 -0.2975
 6092W        W16352   6.128  14.821   0.582 -0.3683 -0.3171  0.3921
 6093W        W16353   0.207  10.567   6.948  0.0484 -0.0318  0.1794
 6094W        W16354   2.551  12.507   6.665 -0.0880  0.2399  0.3462
 6095W        W16355   4.158   9.816   6.886 -0.0493 -0.2757 -0.0316
 6096W        W16356   0.977   9.872   8.610  0.0103 -0.0555 -0.2086
 6097W        W16357  10.964  14.711   7.960 -0.0761 -0.2011 -0.3592
 6098W        W16358   0.796   1.679   1.442  0.2392  0.0535  0.1876
 6099W        W16359   4.964  11.033   2.167 -0.2296  0.0298  0.0727
 6100W        W16360  12.716   1.319   6.529 -0.1097  0.2355 -0.0486
 6101W        W16361   7.222   1.081   0.139 -0.2420  0.4662 -0.3035
 6102W        W16362   3.313  13.514   1.310  0.3651 -0.2151  0.1874
 6103W        W16363   2.349  13.803   6.718 -0.3251  0.2379  0.2731
 6104W        W16364   4.702   1.326   7.889 -0.1969  0.0433 -0.1125
 6105W        W16365  14.865  15.253   7.886 -0.1712  0.1541 -0.0663
 6106W        W16366   2.200   0.825   0.021 -0.1176  0.0636  0.0863
 6107W        W16367   2.606   1.331   6.987  0.1014  0.4579  0.3059
 6108W        W16368   2.294   3.744   7.667 -0.0336  0.1172 -0.1382
 6109W        W16369   5.193   7.393   1.861 -0.0145  0.1020  0.1489
 6110W        W16370   5.947   1.335   2.271 -0.0185 -0.2655  0.0167
 6111W        W16371   0.059  13.233   6.550 -0.2227  0.1895 -0.1873
 6112W        W16372   2.973   9.260   1.954 -0.0560 -0.1071  0.0105
 6113W        W16373   3.905   1.744   6.422  0.0426 -0.0678 -0.1812
 6114W        W16374  12.084   5.621   1.628  0.0408 -0.1628 -0.1300
 6115W        W16375   6.273  16.576   1.576 -0.2070  0.0161 -0.3376
 6116W        W16376   3.645  10.706   0.401 -0.1764 -0.0816  0.1173
 6117W        W16377   7.202  11.342   7.210 -0.1288 -0.2059  0.4313
 6118W        W16378   4.358   0.061   8.145 -0.2282  0.1488  0.1796
 6119W        W16379   3.647  14.518   6.647 -0.2044  0.0138  0.1767
 6120W        W16380   6.150  15.125   1.090 -0.0208 -0.3537 -0.0504
 6121W        W16381   3.843  12.880   6.739 -0.0207  0.0568 -0.2148
 6122W        W16382   6.927  12.259   8.214  0.2875 -0.5136  0.1922
 6123W        W16383   6.442   2.212   7.009  0.1856 -0.0480 -0.1110
 6124W        W16384   3.354  13.845   0.814 -0.2457 -0.0406  0.2466
 6125W        W16385   5.036  16.412   1.960  0.0891 -0.0184  0.1506
 6126W        W16386   7.729  16.435   7.628 -0.0852 -0.2543  0.1839
 6127W        W16387   6.523   8.540   2.071  0.0457 -0.1049 -0.1283
 6128W        W16388   4.133   8.635   8.581 -0.1912 -0.1144  0.0835
 6129W        W16389   2.811   2.085   0.407  0.0629 -0.1078 -0.2641
 6130W        W16390   4.916   0.810   7.652 -0.2058 -0.1873 -0.2691
 6131W        W16391   5.660  12.309   2.079  0.2481  0.2049  0.0818
 6132W        W16392   5.759  13.308   7.126  0.3162 -0.3007 -0.2508
 6133W        W16393  16.341   0.323   8.466 -0.1717 -0.0783  0.1650
 6134W        W16394   5.204  12.617   7.451  0.2549  0.2124  0.3420
 6135W        W16395   7.559   0.085   2.720 -0.2777 -0.1550  0.1715
 6136W        W16396  16.299   2.720   6.566 -0.2101  0.0484 -0.1302
 6137W        W16397   2.744  15.745   6.908 -0.1357 -0.0540  0.1026
 6138W        W16398  13.352   1.938   8.498 -0.0017 -0.0087 -0.0288
 6139W        W16399  13.949   1.882   8.282  0.0810 -0.0323  0.1582
 6140W        W16400   5.033  12.873   8.265  0.1378  0.0914 -0.1352
 6141W        W16401  11.513   6.396   7.234  0.1245  0.0890  0.0183
 6142W        W16402   6.641  15.049   8.086  0.2067 -0.1773  0.3184
 6143W        W16403   2.767  15.826   1.441  0.4116  0.3263  0.0889
 6144W        W16404  10.082   0.333   8.215 -0.3519 -0.0612 -0.2337
 6145W        W16405  11.191  16.321   1.809 -0.1937 -0.5849  0.1999
 6146W        W16406   6.749  14.360   3.057  0.0755  0.0544 -0.0320
 6147W        W16407   9.368   7.155   8.097 -0.0716 -0.0987 -0.0309
 6148W        W16408   1.814  12.751   7.895  0.1763  0.2290  0.3085
 6149W        W16409  13.238   1.500   2.031 -0.0646  0.0599  0.0057
 6150W        W16410  10.160   0.533   7.242  0.0047 -0.0239 -0.1469
 6151W        W16411  14.767   9.121   1.137 -0.2447 -0.1379 -0.2106
 6152W        W16412   5.244   0.086   6.864 -0.0012 -0.5486  0.0319
 6153W        W16413   8.817   4.760   1.654  0.0311  0.1192  0.0635
 6154W        W16414   1.938  10.568   0.477 -0.0818 -0.3279  0.1508
 6155W        W16415  12.689  11.562   1.658 -0.1551 -0.2450  0.1230
 6156W        W16416  12.363  14.206   7.713  0.3058  0.0016  0.0688
 6157W        W16417  11.596   8.989   1.546  0.2123 -0.2617  0.0597
 6158W        W16418  10.908  12.906   1.148  0.1135 -0.1955 -0.0628
 6159W        W16419  10.906   0.326   7.156 -0.2569  0.2531 -0.1672
 6160W        W16420   9.070  12.146   7.798  0.0373  0.1445  0.3369
 6161W        W16421  10.675  16.006   0.358 -0.2345  0.3065 -0.0228
 6162W        W16422  13.207   6.185   2.717  0.0242  0.1521  0.0037
 6163W        W16423   0.364   1.606   7.330 -0.2149  0.1444 -0.2790
 6164W        W16424  11.133  16.316   0.607 -0.0785  0.2870  0.0410
 6165W        W16425  12.297  12.726   7.961  0.0253 -0.1638  0.1083
 6166W        W16426  16.086   5.288   8.408  0.0723  0.0547 -0.1968
 6167W        W16427   7.937  10.863   0.591 -0.1500 -0.3903 -0.0348
 6168W        W16428  13.792   2.793   0.842 -0.0522  0.4376 -0.0669
 6169W        W16429  13.644  15.089   8.453  0.0358  0.2303 -0.1664
 6170W        W16430  14.381  16.192   8.270 -0.0172  0.2736 -0.1600
 6171W        W16431  10.906  14.656   6.645 -0.0806  0.1318 -0.0958
 6172W        W16432   8.225   1.074   0.122 -0.1282 -0.0995 -0.1358
 6173W        W16433  15.096   2.942   8.155  0.1404 -0.0332  0.0987
 6174W        W16434   4.706  10.937   7.083  0.0375 -0.0999 -0.2069
 6175W        W16435  15.419  15.021   8.630  0.1513  0.0228 -0.2114
 6176W        W16436  10.964   3.744   6.008  0.2292  0.1091 -0.1868
 6177W        W16437  14.581  15.286   2.494  0.1295 -0.1010 -0.0365
 6178W        W16438   0.703  14.898   0.950 -0.1004  0.1699 -0.0893
 6179W        W16439  15.485   8.894   0.722  0.1784  0.2583 -0.2137
 6180W        W16440  11.093   4.244   6.157  0.2378  0.3472 -0.2080
 6181W        W16441  10.568  16.047   8.367 -0.1524  0.2531 -0.0512
 6182W        W16442  11.923  11.753   1.851  0.0391 -0.1118  0.0586
 6183W        W16443  16.404  14.772   6.897  0.0637  0.1464 -0.0912
 6184W        W16444   2.523  14.537   1.885 -0.3121 -0.2190  0.0615
 6185W        W16445  16.453   0.554   7.996 -0.2567  0.0788  0.2108
 6186W        W16446   3.225   3.131   1.272 -0.0742 -0.1665 -0.3448
 6187W        W16447   8.920   3.627   8.422 -0.0367 -0.0541  0.0412
 6188W        W16448  13.964   0.951   1.963 -0.2495 -0.0063  0.1666
 6189W        W16449  16.403   1.201   0.793  0.1000  0.0802  0.1972
 6190W        W16450  14.755  12.385   7.047 -0.0136  0.1361  0.0213
 6191W        W16451  15.383   8.723   8.109 -0.2814 -0.0358  0.1724
 6192W        W16452   0.162   7.238   0.724  0.2643  0.1098 -0.1488
 6193W        W16453   0.737   2.107   1.223  0.1680 -0.0904  0.1916
 6194W        W16454  14.159  15.975   7.331 -0.3125 -0.3826 -0.1368
 6195W        W16455   1.052   3.911   0.365  0.0997 -0.1310 -0.2877
 6196W        W16456   0.438  13.630   0.027  0.0335 -0.0338  0.0506
 6197W        W16457   0.335   1.851   1.531  0.0610  0.2551  0.2493
 6198W        W16458   0.206   4.121   7.038 -0.0163  0.1405  0.0124
 6199W        W16459  12.521   1.988   1.453  0.1491  0.4282 -0.3188
 6200W        W16460   5.694   3.054   7.052  0.0315  0.0219 -0.3592
 6201W        W16461   0.684   0.485   7.457  0.0733  0.2298 -0.2551
 6202W        W16462  14.912  15.330   0.651  0.2181  0.1387 -0.1009
 6203W        W16463  14.429  14.437   0.319  0.0074 -0.0694 -0.1264
 6204W        W16464   1.503   9.056   0.863 -0.1755  0.2044  0.2670
 6205W        W16465   9.400  12.799   1.607  0.1078  0.0967 -0.1902
 6206W        W16466   0.175  15.581   1.605 -0.0471 -0.2076  0.1356
 6207W        W16467  12.397   0.500   7.867  0.1454 -0.2093 -0.0025
 6208W        W16468   5.961  15.307   8.321 -0.3261 -0.0902 -0.2164
 6209W        W16469  11.537   3.622   7.927  0.0902 -0.1420 -0.1699
 6210W        W16470  16.446   7.555   1.587 -0.0645  0.0871  0.0892
 6211W        W16471  16.410  16.484   2.299  0.0507 -0.1687 -0.2444
 6212W        W16472   9.991   6.148   2.574  0.1632  0.0113 -0.0163
 6213W        W16473   4.527  15.284   6.921 -0.0993  0.4615  0.0591
 6214W        W16474   9.110  13.382   7.778 -0.0805  0.0654 -0.1118
 6215W        W16475   1.463   3.287   8.230  0.1891  0.1970  0.1643
 6216W        W16476  15.373  13.037   0.687  0.0400  0.2009 -0.0767
 6217W        W16477   2.948   1.109   1.442 -0.0594 -0.0062 -0.0738
 6218W        W16478  12.534   7.674   1.170 -0.1520  0.2024 -0.0349
 6219W        W16479   1.588   0.310   0.516 -0.2576 -0.0941 -0.2507
 6220W        W16480   3.569   6.133   0.922 -0.2037 -0.0150  0.0732
 6221W        W16481   9.185   0.813   6.995  0.0424 -0.0712 -0.0861
 6222W        W16482   7.856  13.370   6.550  0.2384 -0.2134 -0.2089
 6223W        W16483   1.762   1.250   0.762  0.1977  0.0967  0.0292
 6224W        W16484   1.576   1.416   2.684 -0.1517  0.0237 -0.0176
 6225W        W16485   6.608   0.216   0.337  0.2851 -0.0669 -0.1592
 6226W        W16486   3.924  13.674   2.093  0.0606  0.1078  0.3037
 6227W        W16487   2.556   4.704   2.525  0.1841  0.1911 -0.1514
 6228W        W16488   3.250  13.060   1.543  0.0260 -0.0459 -0.0774
 6229W        W16489   3.869  13.604   7.830  0.1500 -0.0741 -0.0642
 6230W        W16490  12.856  14.470   7.284 -0.2673 -0.1491 -0.1324
 6231W        W16491  16.561  14.388   2.491  0.0550  0.0757 -0.2265
 6232W        W16492   7.271   3.027   8.152 -0.4001 -0.3183 -0.0744
 6233W        W16493   7.124   4.336   6.869  0.2020 -0.1914 -0.0558
 6234W        W16494   1.279  16.096   7.022 -0.0408 -0.2983  0.1963
 6235W        W16495   3.811   2.987   7.823 -0.0118  0.0994 -0.0768
 6236W        W16496   5.701  14.726   7.879 -0.1145  0.1145  0.2044
 6237W        W16497   7.687   7.915   0.567  0.2503 -0.1386 -0.1043
 6238W        W16498  15.887   4.852   6.549 -0.0614  0.0869  0.1976
 6239W        W16499  15.472   2.822   0.395  0.4301  0.1975  0.0071
 6240W        W16500  15.735   8.516   8.469 -0.1095  0.1616 -0.0411
 6241W        W16501   6.737  16.297   6.252  0.1863  0.0793 -0.1058
 6242W        W16502   1.908  16.477   7.015  0.1401  0.2230  0.2377
 6243W        W16503  10.495   0.077   7.120  0.1622  0.0060  0.0072
 6244W        W16504   5.981   5.164   1.373  0.1572 -0.0110 -0.3751
 6245W        W16505   8.435   2.947   6.683  0.1143 -0.1727 -0.1579
 6246W        W16506   2.889  12.739   1.369 -0.1200  0.2219 -0.0046
 6247W        W16507   2.816   2.090   6.416 -0.0878 -0.1303 -0.1243
 6248W        W16508   3.555   2.208   8.439 -0.1220 -0.2974 -0.2531
 6249W        W16509   0.266  15.489   7.448  0.2630 -0.0376 -0.1717
 6250W        W16510   5.525  15.573   8.346  0.1310  0.3081 -0.2251
 6251W        W16511   2.123   1.205   1.378 -0.2447 -0.2107 -0.1012
 6252W        W16512   3.715   3.387   1.290 -0.2104  0.0962 -0.0155
 6253W        W16513   1.939  15.816   6.744 -0.1186  0.1883 -0.0128
 6254W        W16514   4.516   2.334   0.457 -0.0054 -0.0235  0.2517
 6255W        W16515   1.435   0.585   2.649 -0.2706  0.2915  0.2525
 6256W        W16516  14.117  14.982   0.043 -0.2804 -0.0946  0.0218
 6257W        W16517   0.018   0.016   6.132 -0.0450  0.0094  0.0283
 6258W        W16518  15.215   2.515   8.424 -0.2235  0.0085 -0.3148
 6259W        W16519   3.724   3.030   0.130 -0.5249 -0.2685 -0.3008
 6260W        W16520   4.386   6.079   8.539  0.0459 -0.0125 -0.0445
 6261W        W16521  14.634  14.761   0.723 -0.0678  0.1202 -0.0355
 6262W        W16522  15.300  15.101   0.428  0.3023 -0.0421 -0.1024
 6263W        W16523   0.730  15.427   1.014  0.1206  0.2468  0.0677
 6264W        W16524  15.023   6.446   1.912 -0.0220 -0.1765 -0.2097
 6265W        W16525   5.404   1.473   0.438  0.1605 -0.1938 -0.0475
 6266W        W16526   2.701  13.928   7.147  0.0032  0.1725 -0.0522
 6267W        W16527  14.553   7.945   8.565 -0.2060 -0.2805 -0.0472
 6268W        W16528   4.926   4.276   8.338 -0.1617  0.1699  0.1307
 6269W        W16529   8.141  13.376   8.258 -0.0341  0.0950  0.0566
 6270W        W16530  16.587  14.010   2.029  0.1395  0.1128  0.3958
 6271W        W16531   6.137  15.815   6.986 -0.1827  0.0896 -0.1084
 6272W        W16532  10.793   6.240   7.934 -0.0677 -0.4818 -0.1831
 6273W        W16533   0.904   4.389   0.504 -0.0670  0.2379  0.0085
 6274W        W16534   5.211  16.280   0.097 -0.0991  0.1528  0.1675
 6275W        W16535   3.518   6.444   8.274 -0.0510 -0.0561 -0.0595
 6276W        W16536   1.817  11.250   8.653 -0.2015 -0.0135  0.0809
 6277W        W16537   5.587  16.072   6.998  0.1642 -0.1006  0.2664
 6278W        W16538  14.313  12.205   7.139  0.0872 -0.0252 -0.1298
 6279W        W16539  13.533   6.056   0.860  0.1058  0.0290  0.4745
 6280W        W16540  13.845   0.146   0.135  0.3245 -0.5790 -0.0377
 6281W        W16541   5.387   1.172   7.665  0.0090  0.0529  0.1465
 6282W        W16542   3.881  11.409   0.827  0.2403 -0.1535 -0.0456
 6283W        W16543   5.905  13.912   6.726 -0.0097 -0.4070 -0.0739
 6284W        W16544   1.666   6.308   7.358 -0.0757  0.0760  0.4134
 6285W        W16545   0.505   1.742   0.942  0.1351  0.0090  0.2868
 6286W        W16546   2.416   2.186   0.052  0.0336  0.0899 -0.0768
 6287W        W16547  12.956   4.230   0.306  0.1534 -0.0802  0.0141
 6288W        W16548  16.348  13.945   7.234  0.0261  0.3476  0.2713
 6289W        W16549   2.865   0.957   5.977 -0.0210 -0.0989 -0.1739
 6290W        W16550   1.235   0.459   8.290 -0.0630  0.0398  0.0906
 6291W        W16551   1.955  15.912   5.838  0.2226 -0.0992  0.1789
 6292W        W16552  16.026   7.180   6.946 -0.2431  0.0394  0.1678
 6293W        W16553  12.809   6.159   1.233  0.1796 -0.1599 -0.0319
 6294W        W16554   1.975   4.470   6.488  0.0152 -0.3784 -0.0968
 6295W        W16555   0.660  11.793   2.551  0.1085 -0.0015 -0.1220
 6296W        W16556  15.133   3.793   8.254 -0.2850 -0.1923  0.3580
 6297W        W16557   6.673   5.449   1.729  0.0711 -0.3918 -0.0925
 6298W        W16558   1.556  16.337   7.333 -0.0484 -0.1701  0.0160
 6299W        W16559  15.142   1.145   8.248  0.2385  0.0816  0.2678
 6300W        W16560  14.236   0.488   8.199  0.0696 -0.0251  0.2289
 6301W        W16561   1.096   1.969   2.146  0.1923  0.3058 -0.0233
 6302W        W16562  14.776   4.655   0.483 -0.0093  0.3753  0.1607
 6303W        W16563  15.918  13.584   7.279 -0.4907  0.0720  0.1761
 6304W        W16564   1.939   8.289   7.817 -0.2075 -0.0998  0.1742
 6305W        W16565   3.766  13.989   0.270 -0.0388 -0.0621  0.0760
 6306W        W16566   4.693  16.433   6.618  0.3495  0.0324 -0.2404
 6307W        W16567   4.847  15.218   6.576 -0.0648  0.0973  0.0714
 6308W        W16568   3.053   6.254   7.815  0.0734 -0.3399  0.1333
 6309W        W16569   0.214  11.798   6.200  0.2622  0.0125  0.1891
 6310W        W16570   3.978   2.085   1.209  0.1937  0.2932  0.0565
 6311W        W16571   1.489   2.791   2.105 -0.1091  0.1972  0.1377
 6312W        W16572  11.391  14.928   8.397 -0.2767  0.1163  0.0936
 6313W        W16573   1.805  16.012   2.195  0.2359 -0.3111  0.0731
 6314W        W16574   2.422  15.025   1.749 -0.0866 -0.1159 -0.1290
 6315W        W16575   8.549  11.597   8.500 -0.3619 -0.2498 -0.2134
 6316W        W16576  14.891   7.227   6.853  0.1329  0.3595  0.1969
 6317W        W16577   5.337   2.671   6.876 -0.3950 -0.1834  0.1073
 6318W        W16578   1.855   2.498   0.254 -0.2495  0.1278  0.0275
 6319W        W16579   3.581   0.977   8.387  0.3498 -0.1497 -0.0060
 6320W        W16580  15.605   0.005   0.862  0.0383  0.0385  0.2902
 6321W        W16581   3.180   5.909   0.807  0.2035  0.0449  0.0187
 6322W        W16582  13.197   2.139   8.059 -0.0633  0.0955 -0.0150
 6323W        W16583   4.791   4.447   0.490 -0.3627 -0.1985 -0.0437
 6324W        W16584   1.511  14.036   6.764 -0.2641 -0.1725 -0.1362
 6325W        W16585  14.823   5.391   2.222 -0.0009  0.3798 -0.0944
 6326W        W16586   6.734   5.177   2.108  0.3441 -0.0664 -0.2404
 6327W        W16587   4.397  11.069   0.753 -0.0173  0.0648 -0.0736
 6328W        W16588   5.104   2.405   2.315  0.0087  0.0897  0.2458
 6329W        W16589   0.860   5.881   2.634 -0.0826  0.2279 -0.1898
 6330W        W16590   2.859  11.617   0.095 -0.2077  0.0758  0.6681
 6331W        W16591   5.838   2.165   1.466  0.0936  0.1175 -0.3955
 6332W        W16592   8.059   0.529   0.846  0.0391  0.0012 -0.0564
 6333W        W16593   1.121  13.983   2.444  0.0190 -0.0319  0.0889
 6334W        W16594   5.653   1.235   1.258  0.0536 -0.2020  0.0481
 6335W        W16595  12.711   2.877   0.530 -0.3924  0.1005  0.1643
 6336W        W16596   4.737   2.172   6.760 -0.1388 -0.0610  0.0159
 6337W        W16597   2.899   1.711   7.844 -0.2352  0.2283 -0.0743
 6338W        W16598   4.159   2.177   6.670 -0.1329 -0.1384 -0.0923
 6339W        W16599   3.824   1.001   2.378  0.2156  0.2928  0.0906
 6340W        W16600  15.930   1.279   0.721 -0.1114  0.1823 -0.1317
 6341W        W16601   0.644  10.603   7.208  0.0324 -0.0518  0.1997
 6342W        W16602   0.840   4.754   7.338  0.1066  0.0204 -0.4682
 6343W        W16603   3.361  15.738   1.383 -0.1144 -0.1512  0.2462
 6344W        W16604   1.604  13.770   7.187  0.1163  0.2952  0.1469
 6345W        W16605   1.090  14.438   0.644 -0.3128 -0.1728  0.1987
 6346W        W16606   1.809   6.681   2.347  0.4596  0.1522 -0.1097
 6347W        W16607   0.403  12.476   0.972  0.1648  0.0954  0.4911
 6348W        W16608   9.223  15.270   7.018  0.2303 -0.2237 -0.1006
 6349W        W16609   1.121   4.785   6.902  0.1552 -0.4301 -0.1777
 6350W        W16610   4.899   5.936   1.923  0.1231  0.1394  0.1623
 6351W        W16611  13.616   4.981   0.516  0.0013 -0.0464  0.1160
 6352W        W16612  13.965   0.704   8.526  0.0232  0.0717 -0.0869
 6353W        W16613   4.562   3.459   0.145  0.0721 -0.0460 -0.5510
 6354W        W16614   3.299   6.057   0.084 -0.1371  0.1187  0.0185
 6355W        W16615  14.693  14.936   7.545  0.3547 -0.0996  0.1476
 6356W        W16616   3.979   1.883   7.397 -0.2152  0.0079 -0.1317
 6357W        W16617   2.236  14.258   0.610 -0.2406  0.1869  0.0681
 6358W        W16618   3.213   1.352   7.583 -0.0360  0.1628  0.1626
 6359W        W16619   1.050  10.192   2.018  0.0177  0.0836 -0.0753
 6360W        W16620   0.278   3.573   6.720 -0.4163  0.1473 -0.2943
 6361W        W16621  14.694  10.931   7.975 -0.3558  0.0460  0.1457
 6362W        W16622   0.500   3.060   0.644  0.0559 -0.2147 -0.1092
 6363W        W16623   3.904  14.473   0.238 -0.3147  0.3051  0.1644
 6364W        W16624   0.491   5.930   1.758 -0.1669  0.2201 -0.2325
 6365W        W16625   0.721  16.456   1.371  0.0668 -0.0224 -0.1879
 6366W        W16626   2.383   4.333   1.143  0.0408 -0.1440  0.0629
 6367W        W16627   3.080  10.569   6.595 -0.1594 -0.2127 -0.0341
 6368W        W16628   0.622   6.518   7.082 -0.0059  0.2215 -0.0367
 6369W        W16629   5.478  13.802   0.981  0.1209 -0.0239  0.1816
 6370W        W16630  16.295   3.317   7.404  0.0935 -0.0479  0.3171
 6371W        W16631   5.284   0.849   7.250  0.3221  0.0664 -0.3918
 6372W        W16632  15.688   2.531   0.091  0.0771  0.0517 -0.4169
 6373W        W16633  16.298  15.860   7.751 -0.1953  0.0857  0.2466
 6374W        W16634   1.917   4.566   1.015 -0.1248  0.1450 -0.0848
 6375W        W16635  15.029   0.297   7.949 -0.1389 -0.0038 -0.2389
 6376W        W16636   2.668   3.419   2.591 -0.1013  0.1143  0.0827
 6377W        W16637   0.651   3.985   0.747 -0.0174  0.0669  0.1395
 6378W        W16638  15.844  15.840   0.210 -0.2565 -0.3093  0.1480
 6379W        W16639   0.041   3.931   1.971 -0.4208  0.2330 -0.0700
 6380W        W16640  14.186  14.541   1.903  0.1040  0.0402  0.1052
 6381W        W16641   3.815  11.296   6.506 -0.5374 -0.2668 -0.1048
 6382W        W16642   1.314  10.633   1.789 -0.2136  0.0087  0.1133
 6383W        W16643   2.800   4.249   0.833  0.2822 -0.0848 -0.1404
 6384W        W16644   3.739   9.990   8.112 -0.2643  0.1982 -0.0397
 6385W        W16645   0.735  15.129   6.056  0.1062  0.1567 -0.1033
 6386W        W16646   4.105  13.286   2.403  0.0683  0.0623  0.0463
 6387W        W16647   0.487  15.437   0.551 -0.0933 -0.1254  0.0722
 6388W        W16648  12.857   4.930   7.656  0.2361 -0.0364 -0.0591
 6389W        W16649   0.716   1.660   7.688 -0.3989  0.1645  0.0544
 6390W        W16650   8.864   6.032   1.364  0.1990  0.0338  0.0780
 6391W        W16651   2.850  15.007   0.971  0.1637 -0.1426  0.1639
 6392W        W16652  16.567   4.016   0.076 -0.0521 -0.3772  0.0480
 6393W        W16653   1.182   2.284   0.772  0.2733 -0.2538  0.2687
 6394W        W16654   5.901   6.537   1.236 -0.0953 -0.1105  0.2794
 6395W        W16655   2.492   0.057   1.392 -0.1201  0.1496 -0.1995
 6396W        W16656  15.813   1.771   8.468  0.0977 -0.1500  0.0236
 6397W        W16657   2.950   3.718   0.782 -0.2994 -0.2349  0.1387
 6398W        W16658   0.681   5.654   2.144  0.2256  0.0871  0.0403
 6399W        W16659  16.399   0.211   7.649  0.0241 -0.2190 -0.1777
 6400W        W16660   1.168   3.761   8.125  0.1706 -0.1483  0.1721
 6401W        W16661  16.317  15.970   0.454  0.0335 -0.0221  0.2691
 6402W        W16662   2.517   1.618   0.098  0.0210 -0.1512 -0.0542
 6403W        W16663   6.276   0.623   7.929 -0.0118 -0.3124  0.0186
 6404W        W16664   2.522   6.018   7.544 -0.0931 -0.0946 -0.0155
 6405W        W16665  15.115   9.700   7.567  0.2587  0.2622  0.1358
 6406W        W16666  16.371   1.945   0.139  0.2180 -0.0123 -0.1989
 6407W        W16667   9.911   2.036   1.870 -0.0004 -0.0113 -0.5354
 6408W        W16668   7.679   0.135   0.645 -0.1689  0.2027 -0.1426
 6409W        W16669   4.245   2.665   7.616  0.0566 -0.0892  0.0793
 6410W        W16670   1.651   1.597   0.285  0.2374 -0.0727 -0.3334
 6411W        W16671   6.026  14.566   1.085  0.3082 -0.1505 -0.0467
 6412W        W16672  16.307   1.010   7.883 -0.0809  0.1754 -0.0801
 6413W        W16673   6.541   0.946   2.239  0.1018 -0.2810 -0.0631
 6414W        W16674   4.494  11.680   0.971 -0.2322 -0.0622 -0.1623
 6415W        W16675   1.270  14.706   0.193  0.0316  0.1559 -0.1073
 6416W        W16676   0.868   6.220   8.002  0.1207  0.0118  0.1910
 6417W        W16677  15.837   3.407   7.494  0.1442  0.3709  0.1110
 6418W        W16678  12.081  12.937   1.478 -0.0903 -0.2192 -0.1235
 6419W        W16679   2.999   0.946   6.477  0.2063 -0.1279 -0.1272
 6420W        W16680   7.490   3.746   1.272 -0.3566  0.3797  0.0799
 6421W        W16681   6.004  16.143   7.332 -0.3204  0.0140 -0.1311
 6422W        W16682   3.615  14.240   0.700 -0.0513 -0.1537 -0.0122
 6423W        W16683   0.785  14.550   1.797 -0.0095  0.1370 -0.1596
 6424W        W16684   6.731  13.383   0.449  0.1312 -0.1696 -0.4811
 6425W        W16685   5.306   4.466   8.072  0.0262  0.0934  0.0753
 6426W        W16686   8.888   4.148   0.379  0.0260 -0.1222 -0.0545
 6427W        W16687   1.733   1.285   2.184  0.0013  0.0049 -0.4167
 6428W        W16688   0.538   9.797   1.077 -0.1473 -0.0966 -0.0250
 6429W        W16689   2.048   4.400   8.259  0.2292 -0.0619 -0.0585
 6430W        W16690   5.312   0.944   0.459  0.0773  0.0069 -0.0410
 6431W        W16691   6.066  12.657   7.671  0.0600 -0.1148 -0.0335
 6432W        W16692  16.403  14.278   0.308  0.0589  0.3825 -0.1324
 6433W        W16693   2.346   1.229   8.426 -0.0584 -0.0373 -0.0819
 6434W        W16694   1.777   3.165   2.295  0.0665 -0.0869  0.0908
 6435W        W16695   5.549   5.736   7.006  0.0434 -0.3216  0.0191
 6436W        W16696   6.747   1.168   1.735 -0.2200 -0.3246 -0.4035
 6437W        W16697   5.895   5.620   1.017 -0.1282  0.0283  0.0949
 6438W        W16698   0.708   2.455   0.280  0.0771  0.2054 -0.2567
 6439W        W16699   2.116  16.058   1.761  0.0993  0.0302 -0.1283
 6440W        W16700   9.052   4.155   8.552  0.0827  0.1440 -0.1663
 6441W        W16701   2.556   5.462   1.265 -0.1519 -0.1168  0.1458
 6442W        W16702   4.964  14.696   1.150 -0.3189  0.0145 -0.1040
 6443W        W16703   2.255   0.002   1.858  0.2542 -0.2219  0.0247
 6444W        W16704   7.354   6.513   8.590  0.0771  0.3311  0.1059
 6445W        W16705   0.093  10.579   6.097  0.1513 -0.5029  0.2590
 6446W        W16706   1.976  11.926   7.841 -0.3103  0.0152  0.1868
 6447W        W16707   6.536  14.821   0.897  0.3224  0.2188 -0.2205
 6448W        W16708   7.781   9.878   7.999 -0.2493 -0.1118 -0.0357
 6449W        W16709   4.894   0.553   1.713  0.0902 -0.3061  0.1063
 6450W        W16710  13.653   3.308   7.325 -0.1536 -0.0572  0.2077
 6451W        W16711  16.269  13.304   0.506  0.0714 -0.0233 -0.0271
 6452W        W16712   8.202  11.234   1.945  0.0366 -0.1766 -0.0575
 6453W        W16713  14.069  13.606   0.457 -0.2668 -0.2235 -0.1150
 6454W        W16714   1.001   2.416   7.566 -0.0238  0.1422 -0.1251
 6455W        W16715   1.105  13.084   6.817  0.0249  0.4917 -0.1142
 6456W        W16716  11.196   5.338   1.481 -0.1644  0.2008 -0.3923
 6457W        W16717   7.040   2.098   0.578  0.2017 -0.1799  0.0559
 6458W        W16718   4.782  15.911   0.188 -0.2869 -0.2627  0.0124
 6459W        W16719   6.715   4.877   0.800 -0.0392  0.0975  0.1070
 6460W        W16720   6.208   1.655   1.882  0.2540  0.0729  0.2409
 6461W        W16721   4.036   1.090   2.813  0.0994  0.0099 -0.1790
 6462W        W16722   3.616   5.115   8.114 -0.0039  0.3383 -0.0057
 6463W        W16723   9.830   3.845   1.247  0.2536  0.0220  0.2138
 6464W        W16724   3.237   0.518   1.163  0.1155  0.0714  0.1171
 6465W        W16725   0.016   5.938   5.865 -0.2512  0.0376 -0.2895
 6466W        W16726  16.389   2.670   7.312 -0.1074  0.0261 -0.1091
 6467W        W16727   3.139   1.706   8.310 -0.2194 -0.1795  0.1444
 6468W        W16728   3.509  16.236   7.848  0.0585 -0.0689 -0.0968
 6469W        W16729   9.726   4.750   1.528  0.3294 -0.0961 -0.1204
 6470W        W16730   7.651   0.697   8.054 -0.2444 -0.1423 -0.0530
 6471W        W16731   1.702   1.708   6.184  0.0391 -0.2565 -0.2128
 6472W        W16732   3.891   5.440   8.444 -0.0938 -0.0084  0.2450
 6473W        W16733  14.268   2.422   0.693 -0.1237  0.1096  0.1328
 6474W        W16734  12.579  16.465   0.040 -0.1063 -0.2048 -0.0842
 6475W        W16735   3.611  16.308   8.339  0.2001  0.3226  0.0860
 6476W        W16736   3.879  13.715   0.728  0.0208 -0.1809  0.2162
 6477W        W16737   1.957  15.293   0.386 -0.0197 -0.4936 -0.0350
 6478W        W16738  12.314   2.894   1.575  0.1511 -0.0055  0.3529
 6479W        W16739   3.311   0.195   0.670  0.0482 -0.2699 -0.1381
 6480W        W16740  12.777   8.427   6.521 -0.0733  0.0359  0.0580
 6481W        W16741   0.240   0.336   2.304 -0.2258  0.0716  0.4471
 6482W        W16742   1.868   9.146   6.998 -0.0997  0.1638 -0.1114
 6483W        W16743   4.330   2.336   1.593  0.0830  0.0613  0.0866
 6484W        W16744   2.161   1.252   2.851 -0.0612 -0.1926  0.0650
 6485W        W16745  13.910   3.374   6.844  0.0319 -0.2772 -0.1295
 6486W        W16746  11.577   1.577   7.743  0.0378  0.0078 -0.1491
 6487W        W16747   4.530   5.894   0.364  0.2114 -0.0955 -0.1956
 6488W        W16748   9.476   4.584   1.964  0.0736 -0.1574  0.0872
 6489W        W16749   9.652   1.556   8.417 -0.1637 -0.0410 -0.1176
 6490W        W16750   9.840  15.764   7.582 -0.0771  0.0229  0.1999
 6491W        W16751   2.740   2.559   7.288 -0.3609 -0.3021  0.0133
 6492W        W16752   3.906  15.085   1.785 -0.3275 -0.1520  0.4337
 6493W        W16753   8.016  15.603   7.450 -0.2277 -0.2211  0.0171
 6494W        W16754   4.432  12.673   7.489  0.1197 -0.0605  0.0015
 6495W        W16755   3.710   5.005   1.504  0.0126  0.0865 -0.0479
 6496W        W16756   4.358   1.223   1.109 -0.0297 -0.3850 -0.1772
 6497W        W16757   8.463   2.319   8.470 -0.0769 -0.3007 -0.1997
 6498W        W16758   9.496  15.443   8.541  0.4082  0.1841 -0.3284
 6499W        W16759   5.637  15.265   0.534  0.0981 -0.3143 -0.0739
 6500W        W16760   0.871   1.622   0.016  0.2230  0.2436  0.0544
 6501W        W16761   4.788   0.428   8.487 -0.0010  0.3132  0.2452
 6502W        W16762   8.789  15.853   0.869 -0.3848  0.2039 -0.0310
 6503W        W16763   5.016   1.231   0.049 -0.1727 -0.1233 -0.0116
 6504W        W16764   7.768   3.732   6.615  0.4703 -0.1909  0.0282
 6505W        W16765   1.496   8.720   1.757  0.2892 -0.0597  0.1759
 6506W        W16766   3.118   0.865   8.065 -0.2972  0.1312  0.1827
 6507W        W16767   8.585   2.715   7.119  0.2878 -0.2162  0.0755
 6508W        W16768   9.656   1.234   1.690  0.2859 -0.0234 -0.1159
 6509W        W16769   9.291  16.550   7.697 -0.1958  0.0313 -0.1872
 6510W        W16770   6.955  10.128   2.180  0.0787 -0.0066 -0.0277
 6511W        W16771   1.925   3.357   8.450  0.2332  0.0590  0.1588
 6512W        W16772   2.745  12.011   0.307 -0.0218 -0.1510 -0.0089
 6513W        W16773   9.046  15.855   8.296  0.1295  0.0558  0.2223
 6514W        W16774   4.497  15.820   8.436 -0.1063 -0.1939  0.0066
 6515W        W16775   5.062   0.622   6.612 -0.1953  0.1299 -0.0494
 6516W        W16776   9.934   4.853   1.130  0.0465 -0.1100 -0.0055
 6517W        W16777  10.901   0.018   1.040 -0.1955 -0.1541 -0.1845
 6518W        W16778   1.600   5.266   1.399  0.1694  0.0788  0.2174
 6519W        W16779   7.316   2.451   6.701  0.1035  0.0480 -0.1038
 6520W        W16780   2.172   2.228   0.607 -0.1060  0.2928 -0.0630
 6521W        W16781   8.158   8.673   2.686  0.0293  0.0794 -0.0790
 6522W        W16782   4.219   1.759   0.922 -0.4457  0.2184 -0.2127
 6523W        W16783   6.938  16.429   7.234  0.1007 -0.0375 -0.2295
 6524W        W16784   7.551   3.873   0.077 -0.3068  0.0575 -0.0140
 6525W        W16785  14.782   0.860   1.570 -0.3697  0.0472  0.0803
 6526W        W16786   3.128   7.435   0.556  0.1658  0.0747  0.0768
 6527W        W16787   3.825   1.274   0.863 -0.0840  0.2241 -0.1734
 6528W        W16788   5.048   7.498   0.068  0.0830  0.0846 -0.0735
 6529W        W16789  15.265   5.646   8.443  0.0035 -0.1227 -0.0529
 6530W        W16790   4.420  13.006   2.665  0.1408 -0.0036 -0.0767
 6531W        W16791   8.209   3.273   7.866  0.0315  0.0070 -0.0778
 6532W        W16792   0.506   3.217   8.655 -0.1520 -0.4391  0.2559
 6533W        W16793   8.852   3.866   0.961  0.1224 -0.1895 -0.1513
 6534W        W16794   3.432  14.796   8.088 -0.1700  0.1461  0.0209
 6535W        W16795  10.315   1.584   8.574 -0.2361 -0.4167 -0.0539
 6536W        W16796   1.975  16.337   1.359  0.1838  0.1903  0.0849
 6537W        W16797  13.320   3.889   8.579 -0.0041  0.0289  0.2383
 6538W        W16798  12.086   2.004   1.743  0.2533  0.1361  0.3831
 6539W        W16799   3.562  13.288   2.176 -0.1626 -0.0788 -0.1357
 6540W        W16800   8.773   3.335   7.552 -0.0877  0.0046 -0.0966
 6541W        W16801  10.271   5.992   8.051 -0.1317  0.0134  0.3083
 6542W        W16802   4.581  12.572   1.055 -0.2013  0.0955 -0.0099
 6543W        W16803   1.969   2.972   0.243  0.1225  0.2755  0.1036
 6544W        W16804  15.797  12.919   0.275  0.0239 -0.0570  0.1426
 6545W        W16805  16.250  15.208   2.791 -0.2596  0.2550 -0.0706
 6546W        W16806   7.128   2.687   2.667  0.0089  0.1947 -0.1545
 6547W        W16807   1.552   1.199   8.655  0.1889 -0.2558  0.0149
 6548W        W16808   8.073   3.877   1.154  0.1136  0.0999 -0.2194
 6549W        W16809   5.826   2.043   7.235  0.4153 -0.0580  0.3950
 6550W        W16810   4.528   1.288   0.143 -0.0657  0.1474 -0.1876
 6551W        W16811   4.197   1.268   7.831 -0.1438  0.1392  0.0757
 6552W        W16812   4.439   1.620   7.561 -0.3083 -0.0934  0.0717
 6553W        W16813   6.657  15.847   7.837  0.2204  0.2489 -0.1566
 6554W        W16814   4.552  15.066   0.267  0.0474  0.1537 -0.0727
 6555W        W16815   2.646   1.667   8.292 -0.0694 -0.4348 -0.1899
 6556W        W16816  11.959   2.342   7.572 -0.1243 -0.1460  0.2729
 6557W        W16817   4.280  11.523   0.006 -0.0296  0.0122  0.1987
 6558W        W16818  12.473   2.975   0.955 -0.1035 -0.1198  0.0770
 6559W        W16819   0.826   4.135   8.038 -0.3432  0.1194  0.1809
 6560W        W16820   0.255   4.990   1.539  0.1139 -0.2304  0.1570
 6561W        W16821   5.212   4.629   1.469 -0.1715 -0.1877 -0.4686
 6562W        W16822   9.805  10.759   0.363  0.1285  0.0320  0.3445
 6563W        W16823   4.921   2.601   0.300  0.2584  0.2742 -0.2039
 6564W        W16824   2.294  14.351   6.978 -0.3467  0.0487 -0.1217
 6565W        W16825   4.237   3.931   2.332 -0.1899  0.0405  0.2652
 6566W        W16826   3.245   0.189   1.998  0.0416  0.2588 -0.2275
 6567W        W16827   1.552   5.312   8.101  0.0043  0.2294 -0.0067
 6568W        W16828   5.885  15.088   2.754  0.1386  0.3457 -0.2234
 6569W        W16829   4.055   3.514   6.069  0.0706 -0.0563  0.0487
 6570W        W16830   6.910   4.225   1.664  0.1782  0.1736 -0.2584
 6571W        W16831   3.284   9.016   7.589 -0.2104  0.0654  0.4479
 6572W        W16832  15.605   6.428   0.085 -0.0866  0.2076  0.1864
 6573W        W16833   5.445  11.433   1.632 -0.0663 -0.0341 -0.1320
 6574W        W16834   5.125   1.406   1.948 -0.0854  0.0610 -0.2027
 6575W        W16835  10.720   7.756   1.505 -0.2174  0.1187  0.0496
 6576W        W16836   4.885   2.888   2.206  0.0441 -0.2170  0.3013
 6577W        W16837   3.447   1.417   8.649 -0.1543  0.0263 -0.2411
 6578W        W16838   5.546   1.785   1.707 -0.0755  0.2618 -0.1596
 6579W        W16839   3.003  14.616   7.748  0.2235 -0.0824 -0.0681
 6580W        W16840   4.298   4.928   0.709 -0.2350  0.0048 -0.0866
 6581W        W16841  15.878  13.674   1.456  0.0538 -0.3400  0.1238
 6582W        W16842  12.893   2.047   7.325 -0.2160 -0.0543 -0.1787
 6583W        W16843   5.298   4.844   6.717 -0.0583  0.0238 -0.1374
 6584W        W16844  11.020   3.001   0.424 -0.0712  0.1377 -0.0974
 6585W        W16845   8.928  16.339   8.083 -0.2600 -0.1215  0.4365
 6586W        W16846  11.944  13.190   0.669  0.1090  0.0669  0.0654
 6587W        W16847  15.762   3.958   2.431  0.1494  0.0978 -0.0214
 6588W        W16848   4.804  12.083   1.769  0.1659 -0.1850  0.2408
 6589W        W16849   4.091  15.595   0.939  0.0479  0.1983  0.1449
 6590W        W16850   8.384  14.473   7.577 -0.3957  0.2154 -0.3501
 6591W        W16851   8.562   5.838   6.758 -0.1683 -0.4726  0.0294
 6592W        W16852   7.091  13.642   1.567  0.2101  0.1269  0.4665
 6593W        W16853   4.307  16.380   1.037 -0.0283  0.1480  0.1419
 6594W        W16854   2.355   5.796   8.421 -0.2024  0.0141  0.0006
 6595W        W16855   6.012   0.817   1.042  0.0819 -0.0355  0.0715
 6596W        W16856   8.469  16.415   8.441  0.1260  0.3111  0.3137
 6597W        W16857   7.290  16.120   6.213  0.0160 -0.3006 -0.2650
 6598W        W16858  12.686  16.216   0.520  0.0062 -0.1584 -0.1637
 6599W        W16859  10.066   0.892   8.129  0.1241  0.2579 -0.0926
 6600W        W16860   7.154   6.934   1.413 -0.1625 -0.1124 -0.1252
 6601W        W16861  10.916   7.181   2.785  0.1144 -0.2936 -0.1367
 6602W        W16862   4.936   0.155   0.177 -0.1938  0.0250  0.2076
 6603W        W16863   8.756  15.747   1.663 -0.1428 -0.0647 -0.1683
 6604W        W16864  12.860  16.139   6.814  0.1140  0.2056  0.1946
 6605W        W16865   9.074   0.641   8.299 -0.1541 -0.4913 -0.2981
 6606W        W16866   7.665   1.329   0.655  0.0305  0.0830  0.0668
 6607W        W16867  14.271   2.963   2.213 -0.1881  0.2104 -0.2576
 6608W        W16868   9.860   2.014   7.261 -0.0716 -0.0146  0.0572
 6609W        W16869   6.508   2.212   0.539 -0.2383  0.4260  0.0459
 6610W        W16870   1.807  11.415   1.722 -0.0233 -0.0517  0.1416
 6611W        W16871  13.398  15.332   1.997  0.0986  0.0775 -0.4803
 6612W        W16872   3.835   7.469   0.418 -0.3144 -0.1934  0.0483
 6613W        W16873  15.279   1.055   6.697  0.0116  0.0658  0.2092
 6614W        W16874   8.812  14.524   1.399 -0.1369 -0.2406  0.1951
 6615W        W16875   4.133   1.797   7.989  0.0854 -0.3233  0.0648
 6616W        W16876   5.982   5.501   8.266  0.1353  0.5392 -0.3090
 6617W        W16877   7.407   0.186   0.126  0.0376 -0.2356  0.0106
 6618W        W16878   8.925   1.502   6.907  0.0499 -0.0219 -0.0605
 6619W        W16879   4.935   1.051   8.220 -0.3073 -0.3023 -0.0265
 6620W        W16880   7.183   2.005   6.450 -0.1459 -0.0074 -0.0196
 6621W        W16881  11.676  13.387   0.101  0.0714 -0.3600 -0.0288
 6622W        W16882  12.524  10.584   1.580  0.2261  0.0261  0.1529
 6623W        W16883   6.531  16.563   8.112 -0.2897 -0.1881 -0.0880
 6624W        W16884  10.846   1.760   6.343 -0.0485 -0.0812 -0.0305
 6625W        W16885   6.194   7.682   0.677 -0.1702 -0.0538  0.3133
 6626W        W16886  12.721   6.735   6.621 -0.1903 -0.0692  0.1201
 6627W        W16887  13.562  16.418   8.584 -0.3078  0.0353 -0.2405
 6628W        W16888  10.232   4.157   0.736  0.3445 -0.0833 -0.0868
 6629W        W16889   3.784   8.811   7.860 -0.0997 -0.0268 -0.2350
 6630W        W16890   5.666   7.952   1.998  0.0279  0.1538  0.1219
 6631W        W16891   0.463  14.400   6.699  0.0126 -0.2469 -0.1890
 6632W        W16892  11.169   2.727   8.213  0.0469  0.3015  0.0718
 6633W        W16893   9.724   0.678   1.734  0.1640 -0.1121  0.1037
 6634W        W16894  12.901   2.749   1.048 -0.0460  0.4502  0.1273
 6635W        W16895   9.414   3.711   8.502 -0.1478 -0.0632 -0.2582
 6636W        W16896   3.687  13.498   1.628  0.0129 -0.1471 -0.2441
 6637W        W16897   9.455   1.905   1.142 -0.3262  0.0838 -0.1434
 6638W        W16898  13.751   2.616   0.043  0.0071 -0.0017  0.1081
 6639W        W16899   3.424  11.745   8.089 -0.2040 -0.1555  0.0374
 6640W        W16900   6.454  11.916   6.673  0.0865 -0.1143  0.1009
 6641W        W16901  14.703   1.400   1.562 -0.1395  0.0738  0.0113
 6642W        W16902   5.606   5.371   7.852  0.1006 -0.0961  0.0592
 6643W        W16903   9.958   1.173   8.646  0.0549 -0.3067  0.0946
 6644W        W16904   5.991  16.023   1.790  0.3175  0.1497 -0.3439
 6645W        W16905   5.846   6.769   1.679 -0.0569  0.0722 -0.0832
 6646W        W16906   4.785  13.173   0.682  0.2868 -0.0036  0.1420
 6647W        W16907  11.224  12.892   0.174 -0.0338 -0.2439  0.3076
 6648W        W16908  11.671   3.972   6.532 -0.1191 -0.2560 -0.2102
 6649W        W16909   9.534  14.604   8.093  0.1399  0.1688  0.1497
 6650W        W16910   7.224   4.217   1.331 -0.3842  0.0791  0.1572
 6651W        W16911  11.157   6.909   1.450 -0.4098  0.0426  0.1433
 6652W        W16912   3.072   2.170   8.605  0.0616  0.2288  0.1535
 6653W        W16913   2.234  14.844   0.538 -0.0471 -0.0794  0.0282
 6654W        W16914   8.666  15.584   8.232 -0.0940  0.4368  0.0586
 6655W        W16915   6.399   2.059   1.636  0.1904  0.0898  0.0582
 6656W        W16916  12.624   0.280   1.654 -0.1864 -0.3294 -0.0490
 6657W        W16917  12.664   4.709   8.107 -0.1966  0.1077  0.0882
 6658W        W16918   9.638   2.352   7.768  0.2233  0.1844 -0.0716
 6659W        W16919   7.885   1.489   7.519  0.2817 -0.3057 -0.2771
 6660W        W16920  14.486   4.416   2.260 -0.3446 -0.0662  0.2920
 6661W        W16921   9.838   4.057   7.932 -0.1901  0.0978 -0.0581
 6662W        W16922   9.712   1.581   0.288  0.1810 -0.1341 -0.1818
 6663W        W16923  11.624   0.282   7.819 -0.0766 -0.1797  0.0790
 6664W        W16924   5.966   8.620   0.379  0.0416 -0.0748 -0.3240
 6665W        W16925   8.435   0.003   7.979 -0.1229  0.2209 -0.2449
 6666W        W16926   1.313   2.322   7.171  0.2411  0.0851 -0.0504
 6667W        W16927   7.167   5.107   1.103  0.0103 -0.1134 -0.3944
 6668W        W16928   5.135   1.495   8.066 -0.1414 -0.0573 -0.3695
 6669W        W16929   4.178   5.161   8.160 -0.3330  0.0708 -0.0983
 6670W        W16930  10.941   3.106   7.044  0.0374  0.1001 -0.0905
 6671W        W16931  11.842   5.636   7.031  0.0887  0.1390 -0.1700
 6672W        W16932   7.592   2.404   8.394  0.0204  0.2547  0.1632
 6673W        W16933  12.530   5.236   1.560  0.1094 -0.0829 -0.0571
 6674W        W16934  11.261   2.237   0.849  0.0710 -0.2882 -0.1620
 6675W        W16935   1.885   1.059   8.297  0.2259  0.3903  0.0865
 6676W        W16936   9.962   4.660   6.512  0.2794 -0.3930  0.2207
 6677W        W16937  14.352   5.978   1.348  0.3528  0.0402 -0.1325
 6678W        W16938   3.728   2.917   7.055  0.0351  0.2255  0.3192
 6679W        W16939   5.220   3.074   0.859  0.4126  0.1290  0.0869
 6680W        W16940   8.173  16.508   6.229  0.0289  0.2023  0.2618
 6681W        W16941   2.891   2.742   1.061  0.1274  0.0338 -0.0558
 6682W        W16942   7.720   3.307   0.371  0.1085  0.0913 -0.3207
 6683W        W16943   7.017  11.290   1.027  0.0228 -0.0500  0.0311
 6684W        W16944   4.428  15.574   1.831 -0.0181 -0.2239  0.0006
 6685W        W16945   8.214   5.916   1.335  0.2241  0.3514 -0.1593
 6686W        W16946   9.277   5.501   6.890  0.2425  0.1614 -0.0139
 6687W        W16947   9.162  15.410   2.614  0.1759 -0.0047  0.1163
 6688W        W16948  11.754   4.765   7.603 -0.1193 -0.4365  0.1560
 6689W        W16949   2.676   1.253   8.046 -0.0262 -0.0286  0.1984
 6690W        W16950  12.956   7.914   1.440  0.1186 -0.1684  0.1221
 6691W        W16951  10.989   0.484   1.232 -0.0082 -0.2915 -0.2018
 6692W        W16952   4.187  10.401   6.382 -0.0389 -0.3068  0.2158
 6693W        W16953  10.534   2.763   1.440  0.1415  0.2119 -0.1090
 6694W        W16954   7.782   4.961   2.158  0.0700  0.1227  0.0737
 6695W        W16955  12.536  14.570   2.054  0.2236 -0.3890 -0.0201
 6696W        W16956   9.295   4.542   0.345 -0.1536 -0.2873  0.0623
 6697W        W16957   7.250  15.256   7.058 -0.0268  0.0561  0.2308
 6698W        W16958  10.599   0.331   8.025 -0.0603 -0.0973  0.0402
 6699W        W16959   3.361   4.232   0.096  0.1100 -0.2993 -0.1161
 6700W        W16960   4.596  10.162   7.667 -0.0199  0.1321  0.2510
 6701W        W16961   3.416  16.145   0.993 -0.0576 -0.0531 -0.0083
 6702W        W16962   3.318   0.323   2.834  0.1668  0.0719 -0.0314
 6703W        W16963   9.202  14.899   7.384  0.0066 -0.0173  0.0657
 6704W        W16964  14.460   0.703   8.675  0.0720  0.1038 -0.2364
 6705W        W16965   5.044  13.471   1.726  0.1621 -0.0187 -0.0480
 6706W        W16966   0.691  15.421   1.546  0.0695  0.2143 -0.0899
 6707W        W16967   9.467   4.411   6.528 -0.3405 -0.1680 -0.0557
 6708W        W16968  11.543   4.181   6.940  0.0429  0.1635 -0.0718
 6709W        W16969   7.256   0.362   2.112  0.0138 -0.3267 -0.0959
 6710W        W16970  11.031   4.706   1.960 -0.1390  0.0831  0.0458
 6711W        W16971   6.947   6.806   0.934  0.0496 -0.1933 -0.3221
 6712W        W16972  14.047  15.826   6.782  0.1705 -0.0621 -0.0999
 6713W        W16973  11.599   6.612   8.613 -0.2818  0.1094 -0.3298
 6714W        W16974  10.998   2.693   7.370 -0.1113 -0.2222 -0.0141
 6715W        W16975   9.076  15.949   0.489 -0.1334  0.1726  0.0784
 6716W        W16976   5.157   1.957   7.891  0.0165 -0.0432  0.3559
 6717W        W16977   3.833   8.401   1.042 -0.0222 -0.1790 -0.0795
 6718W        W16978  15.849   0.753   1.207 -0.0519 -0.2139  0.2349
 6719W        W16979   7.441  14.362   0.778 -0.1896 -0.0495  0.0580
 6720W        W16980  13.512   5.133   1.030 -0.3064  0.0353 -0.0902
 6721W        W16981  12.267  14.659   8.496 -0.0734 -0.0716  0.0809
 6722W        W16982   9.440   1.398   1.227 -0.1550  0.2412 -0.4886
 6723W        W16983   8.625   3.444   8.098  0.2028 -0.1295 -0.3373
 6724W        W16984   3.884  16.369   7.117  0.0154 -0.2805 -0.1193
 6725W        W16985   8.208   2.154   1.623  0.0537  0.2158  0.1033
 6726W        W16986   7.867   1.867   1.757 -0.0961  0.2773  0.1298
 6727W        W16987   8.430   3.596   0.897  0.2819  0.0016 -0.1843
 6728W        W16988   6.989  13.840   0.393  0.0958  0.1256 -0.2277
 6729W        W16989   9.052  15.249   8.414  0.1993  0.0198  0.0139
 6730W        W16990   7.933   0.874   8.496  0.1034  0.2818  0.0148
 6731W        W16991  10.667   2.879   0.777  0.0043 -0.0789  0.0999
 6732W        W16992  10.205   6.531   2.383  0.4057  0.0052 -0.1143
 6733W        W16993   1.262   1.149   6.994  0.1167  0.1067  0.1340
 6734W        W16994   6.185   1.978   7.778  0.0377  0.2493  0.1024
 6735W        W16995   9.321  13.857   8.498  0.1515 -0.0674  0.0733
 6736W        W16996  11.132   5.480   8.446  0.3737  0.1968  0.0496
 6737W        W16997   4.885   0.054   8.120 -0.2321 -0.0906 -0.4076
 6738W        W16998  11.304   4.610   0.591  0.5943  0.0182 -0.3514
 6739W        W16999   5.801   0.786   6.618 -0.1100 -0.1171  0.0450
 6740W        W17000  13.310   6.346   8.613 -0.1600  0.5462 -0.1589
 6741W        W17001   7.953   3.629   8.625 -0.1791  0.1862 -0.0387
 6742W        W17002   0.010   6.191   8.111  0.0737 -0.3213 -0.2960
 6743W        W17003  10.399  15.220   0.634 -0.0517  0.0865  0.2242
 6744W        W17004   9.883   9.258   7.353 -0.2322  0.1468 -0.3212
 6745W        W17005   2.670   0.856   6.834  0.2285 -0.0440 -0.2820
 6746W        W17006   8.248   2.505   6.749  0.1651 -0.0262 -0.2479
 6747W        W17007  12.852   6.289   0.293 -0.2563  0.1319 -0.0909
 6748W        W17008   5.121   4.045   1.865  0.2997 -0.0709  0.0926
 6749W        W17009   2.491  15.379   7.841  0.3563 -0.0018  0.0714
 6750W        W17010  11.328  10.379   1.641 -0.2772  0.0405  0.0636
 6751W        W17011   3.500   5.899   6.599  0.1098 -0.0628 -0.1496
 6752W        W17012   8.952   0.703   7.492 -0.0158 -0.1996  0.0401
 6753W        W17013  11.551   5.320   0.601 -0.0458  0.1915 -0.0470
 6754W        W17014   8.141   1.820   7.245  0.0531 -0.2487 -0.0973
 6755W        W17015   2.892  12.561   8.353 -0.0364  0.1354  0.0680
 6756W        W17016  13.904   3.772   8.564  0.0385 -0.0070 -0.2788
 6757W        W17017   8.393  15.334   7.217  0.0208  0.1605 -0.1717
 6758W        W17018  12.853  12.570   8.143  0.0294  0.2170  0.0080
 6759W        W17019   7.128   0.697   8.391  0.1069  0.0041  0.0704
 6760W        W17020  11.634   0.468   2.100  0.0637 -0.1279 -0.0635
 6761W        W17021  10.976   2.600   1.614 -0.0820  0.3102 -0.2643
 6762W        W17022   7.987   5.996   8.042 -0.2559 -0.0557  0.0934
 6763W        W17023  11.594   3.077   2.205 -0.1125 -0.0238  0.1338
 6764W        W17024   6.518   0.700   1.124 -0.1400 -0.0635 -0.0135
 6765W        W17025   9.583  16.036   7.125  0.3454 -0.2500  0.1386
 6766W        W17026   3.092  15.412   1.034  0.0252 -0.0301 -0.0218
 6767W        W17027  11.773   3.067   6.580 -0.0491 -0.0055 -0.1527
 6768W        W17028   2.158   1.332   1.902 -0.2774 -0.0955  0.2534
 6769W        W17029  12.329   3.238   7.548  0.1207 -0.1929 -0.1772
 6770W        W17030   7.097   2.579   2.126  0.1274  0.1127  0.1579
 6771W        W17031  10.954  16.403   7.105 -0.0073 -0.0596 -0.0248
 6772W        W17032   8.458   1.848   7.587  0.1178 -0.0858  0.1460
 6773W        W17033   8.123   2.800   1.389  0.1257  0.3695  0.0186
 6774W        W17034   4.540  13.084   1.112 -0.0500  0.0643 -0.3362
 6775W        W17035  10.770  15.519   6.436 -0.4349 -0.1488 -0.0020
 6776W        W17036  10.399  13.725   6.848  0.1610  0.0549 -0.1491
 6777W        W17037   7.436   4.635   1.204  0.1023  0.1375  0.1081
 6778W        W17038   3.598  12.305   0.946 -0.1301 -0.0067 -0.5992
 6779W        W17039  11.479  14.531   7.503 -0.0644 -0.0277  0.0079
 6780W        W17040   7.949   0.487   7.604 -0.2610  0.1214  0.2847
 6781W        W17041  14.515   2.331   0.275 -0.0215  0.2912 -0.0238
 6782W        W17042   5.264   4.937   1.073 -0.4015 -0.0184 -0.0605
 6783W        W17043   7.954   5.275   6.687  0.2233  0.1230 -0.0041
 6784W        W17044   0.781   8.705   7.625  0.1461 -0.1252 -0.0978
 6785W        W17045  12.931  15.591   8.534 -0.3702  0.1332  0.2272
 6786W        W17046  11.365  11.188   7.277  0.0649  0.1194 -0.0450
 6787W        W17047   6.940  12.300   1.555 -0.0120 -0.0480  0.0280
 6788W        W17048  13.619  12.613   1.691  0.3729  0.1222 -0.2491
 6789W        W17049   1.072  15.421   0.557  0.4806 -0.0938 -0.4408
 6790W        W17050  14.508  15.172   8.449  0.0946 -0.1026  0.0236
 6791W        W17051  14.921   3.583   7.498 -0.2121  0.1448  0.1672
 6792W        W17052   7.528   0.849   0.687 -0.2602 -0.0768  0.0578
 6793W        W17053   3.684   4.009   7.356  0.1402 -0.0696  0.2817
 6794W        W17054  12.841  11.038   7.671  0.1797 -0.0941 -0.0565
 6795W        W17055   8.176   1.553   1.971 -0.1802 -0.3068  0.0460
 6796W        W17056   8.452   1.384   8.242  0.2542  0.0084  0.0914
 6797W        W17057   7.872   5.325   8.013  0.0831  0.0932  0.1698
 6798W        W17058  11.717   5.064   1.255 -0.0391  0.0527  0.1786
 6799W        W17059  11.641   2.064   0.623 -0.0305 -0.1689 -0.1624
 6800W        W17060   5.109   5.157   1.531 -0.1300 -0.1235  0.0261
 6801W        W17061  15.318  11.565   6.758 -0.3146 -0.0736  0.0687
 6802W        W17062  10.744  15.410   0.272  0.5428 -0.2434 -0.0613
 6803W        W17063  10.869   2.502   6.936  0.0481 -0.1950  0.1056
 6804W        W17064  11.896   4.739   8.065  0.0447 -0.4145  0.1903
 6805W        W17065  10.420   4.485   6.673 -0.0614 -0.2064 -0.0695
 6806W        W17066  14.393   2.281   2.258 -0.0968  0.1620  0.1802
 6807W        W17067  10.480   2.059   8.567 -0.0152  0.4900 -0.2825
 6808W        W17068   4.896   1.192   0.570 -0.2850  0.1301  0.0508
 6809W        W17069  13.762   5.452   7.549 -0.0911  0.0750  0.0011
 6810W        W17070   9.694   3.579   1.652  0.2984 -0.2546 -0.0163
 6811W        W17071  13.279   4.823   2.189 -0.0474 -0.0018  0.0019
 6812W        W17072  14.513   0.858   0.520  0.3836 -0.0141 -0.0907
 6813W        W17073  12.888   3.481   1.551 -0.4534 -0.0877  0.2341
 6814W        W17074   9.690   3.747   6.254  0.1724  0.1233 -0.0628
 6815W        W17075  15.126   5.077   1.332 -0.0973 -0.0110  0.1675
 6816W        W17076  13.049   6.154   1.788  0.1409  0.1143  0.1383
 6817W        W17077  11.030   1.857   2.471  0.0455  0.0711  0.2882
 6818W        W17078  10.702   4.290   0.684  0.0251 -0.2255  0.1683
 6819W        W17079  14.109   2.375   7.412  0.1380 -0.1964  0.0371
 6820W        W17080   6.860   3.789   0.347  0.0867  0.0096 -0.1164
 6821W        W17081   3.277  14.147   1.160 -0.1359 -0.1064 -0.0812
 6822W        W17082  15.109  13.903   0.779  0.2307 -0.0697  0.0606
 6823W        W17083   6.764   3.930   1.327  0.0683 -0.0810 -0.1247
 6824W        W17084  13.048   7.260   0.472  0.1458  0.0489  0.0046
 6825W        W17085   7.869   9.331   8.034 -0.0652 -0.2590  0.0484
 6826W        W17086  11.689   7.474   2.215 -0.2305  0.0752  0.2288
 6827W        W17087  13.188   2.242   6.882  0.3139  0.0630 -0.0166
 6828W        W17088  13.164   4.040   7.725  0.0618  0.4487  0.2463
 6829W        W17089   1.389   2.272   1.834 -0.2915 -0.3903  0.2485
 6830W        W17090  13.449  11.977   1.087  0.1006  0.0761 -0.0259
 6831W        W17091   9.407   0.082   1.275 -0.1885 -0.1388 -0.1908
 6832W        W17092   0.616   7.117   2.467 -0.2070  0.1191  0.1616
 6833W        W17093   1.655   0.738   1.683 -0.1633 -0.0375 -0.2644
 6834W        W17094   9.873  15.947   0.918 -0.0188  0.0234 -0.2716
 6835W        W17095   9.073   3.347   2.705  0.3029 -0.2559  0.2767
 6836W        W17096   0.912   2.702   0.725 -0.2969  0.2558  0.2574
 6837W        W17097  10.619  15.463   8.231 -0.1451  0.1060  0.3194
 6838W        W17098  13.731  13.431   7.864  0.1248  0.0724  0.1615
 6839W        W17099   0.651   0.145   8.619  0.0505 -0.0266  0.0200
 6840W        W17100  11.705  14.577   2.541  0.2838  0.1723 -0.0373
 6841W        W17101  13.598   0.905   8.285  0.3188  0.0928 -0.1457
 6842W        W17102   0.600   0.002   1.820 -0.3772  0.0875  0.0751
 6843W        W17103   8.510   2.755   1.691 -0.0048 -0.1387 -0.1070
 6844W        W17104  15.312  16.240   2.687  0.0573 -0.3393  0.1440
 6845W        W17105   1.074   0.058   0.334  0.1085  0.1481  0.1006
 6846W        W17106  14.404  15.395   0.198  0.0189  0.1020 -0.1893
 6847W        W17107   8.843   0.946   1.718 -0.0903 -0.0591  0.1714
 6848W        W17108  14.868   3.318   8.445  0.1235  0.0188 -0.2977
 6849W        W17109  15.852   1.874   0.694  0.0416  0.0914 -0.3036
 6850W        W17110  14.073   0.700   0.371  0.1860  0.2200  0.2393
 6851W        W17111  14.076   3.295   8.112  0.2587 -0.0742 -0.0418
 6852W        W17112   7.158   5.476   7.648 -0.0220  0.1229 -0.0928
 6853W        W17113  12.257  11.551   1.495 -0.0496 -0.0571 -0.1068
 6854W        W17114  10.028  11.592   8.001  0.0637  0.1428  0.0918
 6855W        W17115  10.587   5.600   2.152 -0.0552 -0.1324  0.2437
 6856W        W17116   9.472   0.109   0.655 -0.0395  0.0169  0.0651
 6857W        W17117  12.367  13.533   6.710  0.0069  0.0415  0.2329
 6858W        W17118   9.945   0.280   1.429  0.3903 -0.0674  0.0087
 6859W        W17119   7.905   0.370   1.636 -0.0497  0.0357  0.2825
 6860W        W17120  11.794   6.241   0.991  0.1172 -0.0558  0.0747
 6861W        W17121  13.582   3.319   1.093  0.3853  0.0454 -0.1981
 6862W        W17122   8.920   6.589   1.152 -0.0945  0.0153  0.2097
 6863W        W17123  15.064   0.004   0.062 -0.0748 -0.1284 -0.1998
 6864W        W17124   2.015  14.691   1.936  0.1235 -0.0645 -0.2303
 6865W        W17125  12.580   2.290   0.373  0.3140  0.1039 -0.0809
 6866W        W17126  12.021  16.202   6.850  0.2596 -0.0800  0.0812
 6867W        W17127  15.768  15.523   6.718 -0.2042 -0.3717  0.1368
 6868W        W17128  12.210   7.413   0.779 -0.0735  0.2498 -0.0271
 6869W        W17129  10.635   0.383   0.842  0.0533  0.0542  0.1913
 6870W        W17130   7.740   3.702   0.785  0.0404 -0.0919  0.1094
 6871W        W17131  13.751   2.817   6.794 -0.0800 -0.0565  0.2223
 6872W        W17132  11.117   3.282   0.830  0.2000  0.0124 -0.1316
 6873W        W17133  11.804   2.115   5.996  0.0518 -0.2085  0.2018
 6874W        W17134   9.602  15.577   6.993  0.0864  0.2370  0.0040
 6875W        W17135  13.738  12.946   1.109 -0.1468 -0.1528 -0.1159
 6876W        W17136  15.205   7.167   8.664 -0.0761  0.0997 -0.3465
 6877W        W17137   8.544  16.417   2.324 -0.0116  0.0187  0.0590
 6878W        W17138  10.317   1.343   1.417  0.0323  0.0410 -0.1202
 6879W        W17139   9.483   1.997   6.609  0.1048 -0.0872  0.1231
 6880W        W17140  13.996  10.761   6.666 -0.1653 -0.1685  0.2018
 6881W        W17141  10.900   2.472   0.574 -0.3017 -0.3791 -0.2424
 6882W        W17142  13.301   0.953   1.937  0.0657  0.0903  0.1020
 6883W        W17143   8.969  14.239   8.474  0.1689 -0.0509 -0.2669
 6884W        W17144   8.850   3.735   1.899 -0.0606  0.1792 -0.0506
 6885W        W17145  12.072   0.145   0.862  0.2524 -0.1779  0.0676
 6886W        W17146   0.590   0.598   2.517 -0.0086  0.0797 -0.0213
 6887W        W17147  13.938   0.172   2.783 -0.3150 -0.0517  0.0985
 6888W        W17148  12.259   6.088   6.879 -0.2461  0.4075  0.1573
 6889W        W17149   8.221   6.982   2.708 -0.0721 -0.0801 -0.0077
 6890W        W17150  15.690   5.847   1.933 -0.0360 -0.1882  0.2645
 6891W        W17151  10.386   6.394   1.865  0.0178 -0.4476 -0.0264
 6892W        W17152  15.573   2.226   0.505 -0.0090 -0.2007 -0.0724
 6893W        W17153  11.950   6.030   7.992 -0.1089 -0.0277 -0.3047
 6894W        W17154  12.777   2.558   6.997  0.1343  0.2366  0.2592
 6895W        W17155  11.797  15.724   6.853 -0.0543  0.1785  0.1138
 6896W        W17156  12.311   1.833   0.455 -0.0719  0.2007  0.1158
 6897W        W17157  13.482   5.003   6.761 -0.1895 -0.2446  0.2580
 6898W        W17158   9.828   7.640   1.654  0.0831 -0.2855  0.0669
 6899W        W17159  12.168  13.632   0.554  0.1192 -0.1558 -0.1438
 6900W        W17160  14.931   1.085   0.758 -0.0875 -0.0791  0.0829
 6901W        W17161  12.880   1.000   7.004  0.2089  0.1808  0.3434
 6902W        W17162   6.869  15.938   1.381 -0.2391 -0.1273  0.0923
 6903W        W17163  14.160  15.515   7.161 -0.1458  0.2261  0.3514
 6904W        W17164  12.553  12.298   0.115  0.3340 -0.0554  0.0162
 6905W        W17165  12.701  14.071   1.071  0.1018  0.0015  0.3153
 6906W        W17166  11.696   0.044   6.137  0.0665  0.1168  0.3421
 6907W        W17167   0.236   3.025   2.057 -0.1570 -0.1154  0.1552
 6908W        W17168   9.707   3.478   7.192 -0.2358 -0.1754  0.1140
 6909W        W17169  13.081   3.187   2.044 -0.1087 -0.3079  0.1149
 6910W        W17170  15.201  14.987   1.364  0.3064 -0.3461 -0.0036
 6911W        W17171   0.159   6.244   6.891  0.0920  0.1452  0.0493
 6912W        W17172  15.880   0.966   6.816 -0.1536  0.1677 -0.1289
 6913W        W17173   0.542   6.472   6.594  0.2660 -0.0605 -0.1834
 6914W        W17174   7.966   7.866   7.697  0.2632 -0.1725 -0.1204
 6915W        W17175  10.327   7.533   7.680 -0.0377  0.1296 -0.5737
 6916W        W17176  10.706   2.648   7.810 -0.0217 -0.1313 -0.0386
 6917W        W17177  11.739   3.885   7.493 -0.0294  0.0566  0.0044
 6918W        W17178   4.106   2.192   0.710  0.2479 -0.0045  0.2482
 6919W        W17179  14.795   3.868   0.917  0.3240  0.2732 -0.0375
 6920W        W17180  13.209  16.044   8.358  0.0389 -0.1007 -0.1294
 6921W        W17181   7.474   3.359   7.830  0.0747  0.2409  0.1693
 6922W        W17182  11.514   2.743   7.495  0.2203 -0.1693  0.0191
 6923W        W17183   8.951   1.469   0.368  0.0615 -0.0687 -0.1224
 6924W        W17184   0.888   8.506   8.564  0.2342  0.0288  0.1409
 6925W        W17185   6.665  14.740   7.637  0.0330  0.2218  0.1691
 6926W        W17186  12.317   4.705   7.670  0.0347 -0.2242  0.2648
 6927W        W17187  10.806   7.163   0.162 -0.2414  0.0858  0.1349
 6928W        W17188   0.990   8.125   1.707 -0.0349 -0.1995 -0.0485
 6929W        W17189  11.703  12.457   1.225 -0.0159  0.3464  0.2748
 6930W        W17190   0.343  14.130   2.407  0.0475 -0.0523 -0.0420
 6931W        W17191  12.844   4.038   8.506 -0.1515  0.0066  0.1854
 6932W        W17192  12.777   1.841   2.660  0.0588 -0.1720  0.1059
 6933W        W17193   9.078   0.454   1.117 -0.0846  0.0910 -0.2307
 6934W        W17194  13.385   5.319   2.089 -0.1078 -0.1457  0.1049
 6935W        W17195  10.576   0.576   7.572  0.1513 -0.0546 -0.0728
 6936W        W17196   8.906   3.346   6.184 -0.0218  0.1681 -0.2784
 6937W        W17197  10.299   5.090   0.804  0.2540  0.2226  0.0131
 6938W        W17198  14.690   1.930   1.429 -0.1654  0.3099  0.2094
 6939W        W17199  10.097   3.270   7.955  0.1270  0.0438  0.0272
 6940W        W17200  13.347   0.063   0.915 -0.1618  0.2133 -0.1211
 6941W        W17201  14.758   4.362   7.524  0.1740  0.2003 -0.1028
 6942W        W17202   1.945   6.929   1.207  0.1429 -0.1250  0.1044
 6943W        W17203  14.359   1.239   0.228  0.2023 -0.0704  0.1268
 6944W        W17204   7.019   4.244   0.204 -0.1409  0.2577  0.0389
 6945W        W17205   1.456  11.425   8.367 -0.6339  0.2633 -0.0155
 6946W        W17206  12.536   3.638   8.607  0.1350  0.4251  0.1677
 6947W        W17207   4.091   3.887   1.224  0.1746 -0.0420  0.1436
 6948W        W17208  15.377  14.212   0.413 -0.0282 -0.0253  0.1166
 6949W        W17209  16.192  14.148   7.809 -0.0626 -0.2357  0.1398
 6950W        W17210   5.366   4.933   1.933 -0.2972  0.2143 -0.2610
 6951W        W17211  12.017   0.416   8.342 -0.1715  0.0546  0.0613
 6952W        W17212  14.845   1.565   2.336  0.0526 -0.0577 -0.2112
 6953W        W17213   3.111   3.424   0.429  0.0847 -0.0344 -0.0500
 6954W        W17214  13.144   5.356   7.612 -0.1468  0.3655 -0.1583
 6955W        W17215   8.844   0.611   2.692 -0.0266  0.2313 -0.1588
 6956W        W17216   8.797   1.584   7.874 -0.0379  0.0576 -0.0214
 6957W        W17217   7.832  11.455   8.525 -0.1139 -0.0844  0.3268
 6958W        W17218   0.214   1.525   2.414  0.0235  0.2067 -0.1433
 6959W        W17219   6.601  14.443   1.254  0.1185  0.0398  0.0414
 6960W        W17220   0.271   3.442   0.393 -0.0915 -0.2874  0.2147
 6961W        W17221   2.518   4.325   1.706  0.0732  0.1450 -0.0012
 6962W        W17222  14.514   7.700   8.128  0.0792  0.0151  0.1037
 6963W        W17223  11.980   4.359   7.449 -0.0749 -0.1389 -0.0079
 6964W        W17224  13.835  15.851   0.203 -0.0155  0.0872 -0.2429
 6965W        W17225  13.780  14.539   0.467 -0.1590 -0.0049 -0.0278
 6966W        W17226  11.169   2.261   2.021  0.1244  0.1347  0.1629
 6967W        W17227   1.118  15.252   2.195 -0.2959  0.1570 -0.0145
 6968W        W17228   0.799   5.785   1.181 -0.1134 -0.3330 -0.0693
 6969W        W17229  12.986   0.963   8.210  0.0115  0.1612  0.1139
 6970W        W17230  13.465   5.815   1.889  0.0165 -0.0883 -0.1818
 6971W        W17231  14.086   2.071   1.923  0.0163 -0.4430  0.0309
 6972W        W17232   9.420  13.383   7.332 -0.1840  0.0771  0.0827
 6973W        W17233  13.761  15.026   7.656  0.1560  0.1436  0.1867
 6974W        W17234  11.752   2.881   2.661 -0.4863 -0.2228 -0.2338
 6975W        W17235  10.298   1.250   2.351 -0.0923  0.0079 -0.1251
 6976W        W17236   9.722  14.467   6.666  0.1927  0.0100  0.3518
 6977W        W17237   9.488   8.682   1.474 -0.0704 -0.2214  0.1623
 6978W        W17238   9.618  15.679   1.956  0.3786 -0.1510 -0.1227
 6979W        W17239  12.134   3.239   7.012 -0.0764 -0.4138  0.1139
 6980W        W17240  15.297  14.962   1.819  0.1149  0.1083 -0.0013
 6981W        W17241  12.839   1.554   7.493 -0.1092  0.1922 -0.1766
 6982W        W17242   8.813  14.880   1.830  0.1265 -0.2252  0.1632
 6983W        W17243   9.532   8.188   0.626 -0.1538 -0.2226 -0.0498
 6984W        W17244   7.929  16.124   7.252  0.3427 -0.0547 -0.3321
 6985W        W17245  15.524  15.408   7.860 -0.0314 -0.1128  0.2496
 6986W        W17246  15.529   3.654   1.372 -0.2006 -0.2640 -0.0957
 6987W        W17247   0.539   1.302   8.498  0.2256  0.0817  0.1016
 6988W        W17248   3.489   1.739   1.767  0.0683  0.0382 -0.1526
 6989W        W17249  10.743   2.732   2.648  0.0104  0.0029 -0.2814
 6990W        W17250  15.727   2.087   7.036 -0.0141  0.1177 -0.0158
 6991W        W17251  14.160   1.901   6.969 -0.0063  0.0455 -0.4980
 6992W        W17252  11.491  11.785   8.326  0.0146  0.2463 -0.0526
 6993W        W17253  10.318  16.363   0.221 -0.3069 -0.0107 -0.0217
 6994W        W17254  10.220   0.723   2.409 -0.0323  0.2570  0.2910
 6995W        W17255   2.961   5.745   7.584 -0.2705  0.2188 -0.1419
 6996W        W17256   8.380   0.922   0.838  0.4137  0.0022 -0.1817
 6997W        W17257  14.468   2.765   7.452  0.1159 -0.1816  0.0734
 6998W        W17258   8.178   0.125   6.663  0.3343 -0.0532  0.1530
 6999W        W17259   9.272   3.827   6.576 -0.0827 -0.0267 -0.0822
 7000W        W17260  14.220   4.288   6.785 -0.0332 -0.0734  0.1467
 7001W        W17261  14.764   5.948   8.094 -0.2920 -0.1446  0.1097
 7002W        W17262   8.423  13.074   0.761 -0.1070  0.0976  0.4039
 7003W        W17263  16.036   5.278   7.565 -0.1738 -0.1849 -0.0976
 7004W        W17264  11.227   6.672   1.953  0.2568  0.0725  0.1906
 7005W        W17265  11.953  16.425   7.946  0.1229  0.2674 -0.3338
 7006W        W17266  12.717   8.783   8.395 -0.0391  0.3951  0.0206
 7007W        W17267   0.251   0.388   8.270 -0.1466  0.1701 -0.3031
 7008W        W17268   0.258   2.500   2.436  0.2375  0.1614 -0.1822
 7009W        W17269   1.649   2.109   1.083  0.3612  0.1925  0.0445
 7010W        W17270  15.425   0.548   8.097  0.0085  0.2750  0.0723
 7011W        W17271   1.060   5.151   1.545  0.0803 -0.3110  0.0354
 7012W        W17272  15.619  14.619   1.693 -0.2926 -0.1305 -0.0183
 7013W        W17273  10.261   0.811   0.670 -0.0242  0.1016  0.1432
 7014W        W17274  12.401   3.418   1.670 -0.3602 -0.0013 -0.1353
 7015W        W17275  15.130  16.102   2.069 -0.0783  0.0308 -0.1106
 7016W        W17276  11.128   5.945   8.304 -0.2194  0.3760 -0.0910
 7017W        W17277  14.841  13.828   7.946  0.2527  0.1703 -0.2725
 7018W        W17278   0.198  14.629   7.255  0.0179  0.0161 -0.1468
 7019W        W17279  10.729   1.347   1.211 -0.1923 -0.0785  0.2427
 7020W        W17280   0.839   2.017   7.335  0.1803 -0.0021  0.1334
 7021W        W17281   0.888  11.333   1.452  0.0479  0.0246 -0.4007
 7022W        W17282   9.819   2.843   8.489  0.0859 -0.0501  0.1955
 7023W        W17283  12.381   2.877   8.399  0.1337 -0.1066  0.0589
 7024W        W17284  13.239   0.522   0.531 -0.2600  0.1279  0.0578
 7025W        W17285  12.588  12.431   7.591 -0.0883  0.0288  0.2260
 7026W        W17286  13.748   0.302   0.646 -0.2528 -0.1053  0.1761
 7027W        W17287   3.687   7.179   1.302 -0.2775  0.0582 -0.2464
 7028W        W17288   3.326   5.707   7.039  0.0937  0.0514 -0.0027
 7029W        W17289   2.550   3.476   7.273 -0.1676  0.1531  0.0192
 7030W        W17290  13.016   1.740   6.690  0.0453 -0.0068 -0.1796
 7031W        W17291   1.291   4.148   7.724  0.0817  0.0040 -0.0775
 7032W        W17292  13.151  15.095   1.617  0.0671 -0.0565 -0.0134
 7033W        W17293  15.332   0.027   8.241  0.3608  0.3603  0.4342
 7034W        W17294  15.406  16.104   7.737  0.1446 -0.0932 -0.1561
 7035W        W17295   3.554   0.874   1.035 -0.0658 -0.1023  0.0741
 7036W        W17296  14.490   5.643   0.651 -0.0720 -0.1184 -0.3042
 7037W        W17297   1.238   0.892   1.495  0.1660 -0.2039  0.1102
 7038W        W17298  13.604   1.380   6.841 -0.0492  0.0838  0.3861
 7039W        W17299  10.631   3.999   6.993  0.1034  0.0910 -0.0733
 7040W        W17300   5.189   3.271   8.229 -0.0286  0.1652  0.1926
 7041W        W17301   6.327   5.869   7.459 -0.1035 -0.1716  0.1709
 7042W        W17302  15.482   0.077   2.336 -0.1437 -0.0274 -0.1377
 7043W        W17303  14.192   2.721   0.234  0.2306  0.0443  0.1868
 7044W        W17304  15.989  15.998   8.413 -0.0656 -0.3314  0.0247
 7045W        W17305  14.639   3.177   7.769  0.0624 -0.1043  0.0368
 7046W        W17306   0.969   3.220   1.533  0.1108 -0.0725  0.2030
 7047W        W17307  16.551  14.943   7.596 -0.1795  0.1535 -0.0222
 7048W        W17308  12.246  11.997   0.423  0.0473 -0.3786  0.3482
 7049W        W17309   0.474   4.403   7.511  0.3764 -0.0012 -0.0440
 7050W        W17310  15.405   3.716   7.768 -0.1451 -0.3235  0.4863
 7051W        W17311  11.339   8.755   6.864 -0.1897 -0.2280  0.3256
 7052W        W17312  15.929   0.710   0.692 -0.2501 -0.3211 -0.0875
 7053W        W17313  12.631   3.520   1.132 -0.1349  0.2230 -0.0587
 7054W        W17314  14.226   9.305   7.290 -0.0572  0.0113  0.1715
 7055W        W17315  14.338   7.011   5.666  0.0669 -0.0321 -0.2013
 7056W        W17316   1.564   0.767   7.458 -0.0776  0.0840 -0.4473
 7057W        W17317  13.661   0.337   8.318  0.1727  0.3052 -0.1823
 7058W        W17318  10.132   1.848   7.728 -0.2266  0.2446  0.0831
 7059W        W17319   0.687  14.466   7.164 -0.0754  0.0923 -0.0903
 7060W        W17320   3.066   7.971   0.065 -0.1307  0.3534  0.2234
 7061W        W17321  15.537  15.151   7.104 -0.1880  0.0835  0.1463
 7062W        W17322   4.127  15.408   7.663 -0.0161  0.1274 -0.2344
 7063W        W17323   9.529  16.166   6.607  0.0399 -0.3187  0.0053
 7064W        W17324  13.460   2.784   1.965  0.1203 -0.3719  0.0843
 7065W        W17325   4.018   1.368   0.063 -0.1135 -0.3082  0.0551
 7066W        W17326   2.499  15.875   0.040  0.2305 -0.2552  0.1888
 7067W        W17327  11.843   2.725   1.416 -0.0986 -0.0708 -0.3351
 7068W        W17328  15.538   1.021   0.928  0.1074  0.2131  0.1339
 7069W        W17329   9.350   2.231   0.785  0.1270  0.0909  0.1342
 7070W        W17330   3.054  15.947   2.803  0.2846  0.0865  0.0980
 7071W        W17331   0.186  10.216   1.316  0.1052 -0.1929  0.1961
 7072W        W17332  13.277   4.942   8.511 -0.3264  0.5148 -0.2345
 7073W        W17333   0.404   0.831   1.083  0.2943 -0.1712 -0.1540
 7074W        W17334  16.284   0.858   6.224  0.2989 -0.2444 -0.2527
 7075W        W17335  14.424   1.851   8.155 -0.0321 -0.1038 -0.0007
 7076W        W17336  11.543  13.586   7.710  0.1735 -0.1408 -0.0082
 7077W        W17337   0.122  14.157   0.668 -0.1003  0.0408  0.0552
 7078W        W17338  13.902  12.138   0.192  0.1740  0.0407 -0.1565
 7079W        W17339   4.605   0.187   7.083  0.0446 -0.2875 -0.1197
 7080W        W17340   1.282   1.167   1.934  0.0720 -0.0056  0.2547
 7081W        W17341  13.427  14.359   6.842  0.0452  0.2205 -0.1573
 7082W        W17342  14.374   6.156   0.779  0.2227  0.0082  0.0344
 7083W        W17343  14.363   0.580   7.392 -0.3021  0.1713  0.0623
 7084W        W17344   2.996  16.211   6.260  0.3778 -0.1588  0.2190
 7085W        W17345  12.722  13.690   1.620  0.0816  0.0537 -0.0290
 7086W        W17346  11.545   4.549   2.032 -0.1229 -0.0637 -0.2632
 7087W        W17347   8.485   5.082   1.361  0.0086 -0.2742  0.1387
 7088W        W17348  10.688   3.415   0.976  0.1959  0.2318 -0.0429
 7089W        W17349   4.466   7.499   8.043  0.0551  0.1805 -0.0863
 7090W        W17350  11.162   0.706   6.968  0.0896 -0.1362  0.2262
 7091W        W17351  12.802   1.082   1.111  0.1607  0.2261 -0.2087
 7092W        W17352  11.028   3.833   0.917  0.2217 -0.1207 -0.2934
 7093W        W17353  12.797   2.303   7.725 -0.1048 -0.0672  0.0259
 7094W        W17354   2.789   5.068   1.063 -0.0833 -0.1030 -0.2671
 7095W        W17355  15.956   3.205   8.410 -0.0307 -0.0704  0.0431
 7096W        W17356  14.931   9.906   8.070 -0.3085  0.1101  0.2207
 7097W        W17357   2.709   3.989   1.311 -0.2353  0.0933 -0.0158
 7098W        W17358  15.178  16.121   0.332 -0.1776 -0.3336  0.0762
 7099W        W17359   8.573  14.020   6.720 -0.3778 -0.0501  0.3257
 7100W        W17360  15.708  16.331   8.045  0.1431 -0.0786  0.1434
 7101W        W17361   2.925   0.410   8.005 -0.1332 -0.0031 -0.1672
 7102W        W17362   3.705   4.138   0.899  0.1561  0.0199 -0.0351
 7103W        W17363   0.396   2.563   0.675  0.0085 -0.3015 -0.2751
 7104W        W17364  14.986   3.768   6.922  0.2516  0.2573 -0.1325
 7105W        W17365  10.142   4.887   6.944  0.0682 -0.0776  0.1605
 7106W        W17366  15.114   5.402   1.742  0.1189  0.0439  0.3028
 7107W        W17367   5.023  11.764   6.769 -0.0291  0.1989  0.2625
 7108W        W17368   2.970   1.556   2.369  0.2248  0.1694  0.2669
 7109W        W17369  11.594  14.562   1.327  0.0023  0.0377 -0.0723
 7110W        W17370   2.074  13.605   7.977 -0.5467  0.1296  0.0510
 7111W        W17371  16.472  14.772   2.108  0.1014  0.3090  0.1045
 7112W        W17372   2.946  14.901   7.350 -0.1288  0.2285  0.1082
 7113W        W17373  13.340  16.477   1.482 -0.1182  0.1885  0.2598
 7114W        W17374   0.708   1.793   2.400 -0.0853  0.2189 -0.0174
 7115W        W17375  14.472   1.341   0.696 -0.3452 -0.0007  0.0436
 7116W        W17376   5.309  12.655   1.759  0.0412  0.0497  0.1607
 7117W        W17377  14.545   2.349   7.148 -0.1752 -0.2582 -0.0711
 7118W        W17378   0.030   3.403   1.727  0.0655 -0.1788 -0.1514
 7119W        W17379  14.392   4.499   1.708 -0.0749 -0.1823 -0.0744
 7120W        W17380   1.659   1.598   7.692  0.2614  0.0689 -0.0911
 7121W        W17381  10.063  16.335   8.482 -0.3518 -0.0899  0.0277
 7122W        W17382  14.599   1.254   7.950 -0.3670  0.1334  0.0349
 7123W        W17383   0.504   3.513   0.839  0.0202  0.2529 -0.2281
 7124W        W17384   2.780  15.141   8.650  0.1020  0.0688  0.2031
 7125W        W17385   1.209   7.787   0.267 -0.0126  0.1104 -0.0001
 7126W        W17386  14.059  14.860   1.574 -0.1714 -0.0649  0.2398
 7127W        W17387   1.222   6.394   7.596  0.3400 -0.0638  0.3648
 7128W        W17388  15.587  12.716   1.138 -0.0286  0.0875 -0.0753
 7129W        W17389  12.550   9.234   8.354  0.3305 -0.0254 -0.0765
 7130W        W17390   2.105   0.867   1.948 -0.1034 -0.0483  0.1539
 7131W        W17391   9.229  15.467   7.967  0.2805  0.1793  0.1558
 7132W        W17392  13.093   7.115   1.776  0.1866 -0.0412 -0.0844
 7133W        W17393  15.263   3.731   0.893  0.0075 -0.1410 -0.0192
 7134W        W17394   6.488  16.345   7.589  0.0890  0.0528  0.0860
 7135W        W17395   0.761   5.506   6.104 -0.2393 -0.1302  0.0069
 7136W        W17396  11.058  12.241   7.143 -0.1936 -0.1555 -0.2714
 7137W        W17397  13.443  14.868   0.228 -0.1037 -0.0056  0.0773
 7138W        W17398   0.011  15.582   0.638  0.0625 -0.5196 -0.0863
 7139W        W17399   0.964  13.858   0.725  0.2414 -0.1664  0.0706
 7140W        W17400   0.901   5.174   7.729  0.2945 -0.1139  0.0752
 7141W        W17401   2.425   2.909   7.384 -0.0627  0.0631 -0.2079
 7142W        W17402  15.674  14.328   0.880 -0.4634 -0.3347  0.2666
 7143W        W17403   3.310   7.936   2.428  0.1326  0.0472  0.0802
 7144W        W17404   3.681  10.295   2.752  0.0193 -0.0462  0.0708
 7145W        W17405   0.485  16.143   8.559  0.0092  0.2234 -0.2614
 7146W        W17406   2.004   4.353   1.466  0.1444  0.0520 -0.2252
 7147W        W17407   1.730  15.972   7.715  0.1553 -0.1315 -0.1215
 7148W        W17408  15.974  16.067   6.627 -0.3047 -0.4244 -0.0084
 7149W        W17409   0.071   2.453   8.387 -0.0943  0.1767  0.2279
 7150W        W17410  15.454   0.613   7.584  0.0032  0.0325 -0.1081
 7151W        W17411   3.898   7.718   8.375  0.2857  0.0115  0.0196
 7152W        W17412   3.891   9.282   1.602  0.0346  0.4008 -0.0295
 7153W        W17413   1.639  11.801   7.166  0.1480 -0.1528  0.1598
 7154W        W17414  15.455   4.792   6.926  0.0177  0.1091  0.0111
 7155W        W17415   1.444   5.211   2.241  0.1354  0.0936 -0.3859
 7156W        W17416   5.802  14.126   8.503  0.0133 -0.2752 -0.0857
 7157W        W17417   1.547   4.288   1.252  0.1111  0.0265  0.1778
 7158W        W17418  13.621   8.747   6.765  0.1064  0.1490 -0.1106
 7159W        W17419   4.510   2.304   8.207  0.1476 -0.0345  0.0309
 7160W        W17420   7.510   7.923   8.403  0.2412 -0.0508  0.5230
 7161W        W17421   0.626   3.386   1.824  0.0267 -0.1089  0.2323
 7162W        W17422   3.650  16.539   1.934 -0.0794  0.0447 -0.2561
 7163W        W17423   3.095  13.820   8.028  0.3142 -0.0333  0.0144
 7164W        W17424   0.515   5.295   0.365 -0.4640  0.0766  0.3304
 7165W        W17425   6.972  10.502   7.672 -0.3376  0.1221  0.0223
 7166W        W17426  14.619   3.717   2.693  0.2974  0.0119 -0.0073
 7167W        W17427   1.842   5.442   1.937 -0.0021  0.2878 -0.4229
 7168W        W17428   1.580   2.822   2.591 -0.2122  0.2760 -0.1876
 7169W        W17429   3.100   0.874   8.649  0.1014 -0.0734 -0.1621
 7170W        W17430  15.722   5.613   8.272  0.3728  0.0392  0.2049
 7171W        W17431  16.098   5.432   1.963 -0.0197  0.2036  0.0704
 7172W        W17432  16.109   6.236   2.235  0.0336 -0.1358  0.0765
 7173W        W17433   2.556   0.757   0.698  0.0645 -0.2049 -0.2227
 7174W        W17434  15.972   2.624   2.107  0.0158 -0.0034 -0.5560
 7175W        W17435   4.128  10.187   2.729  0.0769  0.0484  0.1499
 7176W        W17436  12.568   1.842   0.882 -0.0210  0.1432 -0.2643
 7177W        W17437   3.593   5.657   0.746  0.0802  0.0441 -0.1092
 7178W        W17438   7.863   7.738   1.258  0.0327 -0.0287  0.0674
 7179W        W17439  14.623   8.615   7.703 -0.0044  0.3265  0.1411
 7180W        W17440   3.550   0.489   6.604  0.2115 -0.2016  0.1486
 7181W        W17441   3.284  16.456   6.789  0.3993 -0.6134 -0.1032
 7182W        W17442  13.557  14.850   1.955 -0.1173 -0.0148  0.0460
 7183W        W17443   2.207   6.204   7.046  0.1170 -0.0097 -0.2779
 7184W        W17444  11.988   5.081   0.785  0.0425  0.0101  0.1275
 7185W        W17445   7.719   4.427   2.233  0.2999  0.1387  0.3361
 7186W        W17446   5.826   5.729   0.535 -0.1605 -0.0374  0.3552
 7187W        W17447   2.272   6.516   1.204 -0.0751  0.3746  0.6310
 7188W        W17448   7.424   1.781   0.611  0.0294 -0.0818 -0.2138
 7189W        W17449   3.536   4.664   1.169 -0.0243 -0.0290 -0.1517
 7190W        W17450   0.906   8.210   8.159  0.1844  0.0921 -0.2320
 7191W        W17451   4.235   5.011   7.368  0.1185  0.0633 -0.2200
 7192W        W17452   7.813  16.227   0.888 -0.1247 -0.3112  0.1001
 7193W        W17453   1.309   1.665   8.471 -0.0715  0.1870  0.2137
 7194W        W17454  14.404   7.022   1.370 -0.3788 -0.2596 -0.1744
 7195W        W17455   4.836   5.080   6.568 -0.1020 -0.0828 -0.1097
 7196W        W17456   0.886   8.165   6.882 -0.0307 -0.1834  0.0801
 7197W        W17457   1.040   0.576   7.813  0.0541 -0.1699 -0.1665
 7198W        W17458   4.858   3.694   1.616  0.0928  0.1278 -0.0486
 7199W        W17459   5.013  10.526   1.342  0.0589  0.0165 -0.2016
 7200W        W17460  10.964  15.055   0.574  0.0918  0.0255 -0.0845
 7201W        W17461   3.422   9.126   8.433 -0.0663  0.2198 -0.1061
 7202W        W17462  15.486   9.001   8.530  0.1159 -0.0551 -0.1689
 7203W        W17463  12.712   5.549   8.467  0.1424 -0.0707 -0.0188
 7204W        W17464   6.505   7.265   0.792  0.7220  0.0713 -0.2165
 7205W        W17465  16.457   3.583   6.314 -0.0588  0.1092  0.1389
 7206W        W17466   5.021  10.384   2.345 -0.2170 -0.0536  0.2270
 7207W        W17467  15.928   3.143   7.923 -0.0292  0.0430  0.3663
 7208W        W17468  15.052   8.985   8.301  0.0924 -0.2647  0.0915
 7209W        W17469   1.981  14.218   1.763 -0.2557  0.1065  0.0177
 7210W        W17470   4.241   8.064   1.784 -0.1371  0.1124  0.0311
 7211W        W17471  15.483   5.222   7.545 -0.0047 -0.0531  0.0113
 7212W        W17472   5.442   5.752   2.118  0.1752 -0.0196  0.0316
 7213W        W17473   2.479   6.510   0.666  0.0521  0.0578 -0.1298
 7214W        W17474  16.424  12.016   1.449  0.1830  0.1530 -0.2408
 7215W        W17475   1.259  11.542   6.958  0.2021  0.0152 -0.1637
 7216W        W17476   3.056   6.222   8.346 -0.0489  0.0929 -0.2087
 7217W        W17477   0.985   6.477   6.342  0.0197  0.0334  0.1164
 7218W        W17478   5.762   2.151   8.633  0.2705 -0.1956 -0.0766
 7219W        W17479   4.180   1.630   1.462 -0.1408  0.1916 -0.2759
 7220W        W17480   2.695   0.197   7.552 -0.0065 -0.1318 -0.1615
 7221W        W17481   0.906  15.958   2.500  0.0735  0.2175 -0.1571
 7222W        W17482  15.653   4.408   0.019 -0.1276 -0.0555 -0.1172
 7223W        W17483  13.327   9.772   7.957 -0.0457 -0.0812  0.1236
 7224W        W17484   1.037   1.411   6.601  0.0064  0.0170 -0.0568
 7225W        W17485   5.647   7.816   7.692  0.1954  0.2316  0.2083
 7226W        W17486  11.799   2.634   6.836 -0.0299  0.2247  0.1820
 7227W        W17487  14.528  11.073   1.845  0.1713  0.2850  0.0669
 7228W        W17488   3.113   0.328   0.113  0.0520  0.1304 -0.0352
 7229W        W17489  14.986  11.470   7.120  0.1122  0.3524  0.1007
 7230W        W17490   2.110   6.145   7.954 -0.0841 -0.1638  0.0140
 7231W        W17491  15.657   5.396   1.567 -0.0152  0.0264  0.1673
 7232W        W17492   3.616   9.662   1.364 -0.2874 -0.2330  0.0374
 7233W        W17493   7.054   2.508   8.434  0.0447 -0.0477  0.0723
 7234W        W17494   6.888   1.711   6.713 -0.0748 -0.1913 -0.1695
 7235W        W17495   0.324   7.342   5.990 -0.0017 -0.0379  0.1247
 7236W        W17496   2.102  10.579   7.262 -0.0623 -0.0913  0.2840
 7237W        W17497   7.603   5.578   6.418  0.3037  0.0424 -0.0614
 7238W        W17498   0.602   7.497   6.515  0.2654  0.1424 -0.1078
 7239W        W17499  14.251   4.422   0.749  0.0061 -0.3739  0.0165
 7240W        W17500   4.327   4.788   7.773 -0.2654 -0.2948 -0.2065
 7241W        W17501   2.580   2.501   0.727  0.0464 -0.1818 -0.1723
 7242W        W17502   5.776   1.152   0.702 -0.0510 -0.0838 -0.1777
 7243W        W17503   8.826   5.927   7.915  0.0400  0.3411  0.3167
 7244W        W17504   1.293   2.839   1.577  0.0099  0.2558 -0.0766
 7245W        W17505   5.800   9.660   0.083  0.1787 -0.0027 -0.1671
 7246W        W17506  15.987   5.398   6.708  0.1132  0.3263 -0.2316
 7247W        W17507  13.496   2.316   1.687  0.3544  0.3729  0.0334
 7248W        W17508  14.461   1.353   2.052  0.0225 -0.1736 -0.1751
 7249W        W17509  16.112   3.260   1.461 -0.1976 -0.0782 -0.0361
 7250W        W17510   4.717  13.492   7.333 -0.0771 -0.0387  0.2915
 7251W        W17511   3.381   3.180   6.851 -0.0420  0.1739 -0.3125
 7252W        W17512  13.056   6.194   7.275  0.1871  0.5166 -0.1816
 7253W        W17513   3.471   6.010   7.588  0.0428 -0.1974  0.3452
 7254W        W17514   2.675   7.170   8.141 -0.1852  0.1435 -0.0026
 7255W        W17515  15.649   9.571   0.279  0.2667 -0.0500 -0.2229
 7256W        W17516   6.027   0.105   8.188  0.0576  0.1751 -0.0002
 7257W        W17517   2.853   4.520   6.906  0.0729 -0.1130  0.0540
 7258W        W17518   3.541   3.371   8.009  0.1674 -0.0327  0.1712
 7259W        W17519   2.125   1.517   7.928  0.2273 -0.1976  0.0627
 7260W        W17520   0.194   4.857   8.190  0.0656  0.0214 -0.0937
 7261W        W17521   5.272   7.035   7.974 -0.0825 -0.0697  0.0854
 7262W        W17522  14.866   1.051   0.210 -0.0273 -0.2007 -0.0846
 7263W        W17523   0.172   6.613   1.492  0.3711 -0.2362 -0.1584
 7264W        W17524   2.589  10.608   1.144 -0.1638  0.2187  0.2428
 7265W        W17525  16.243   0.492   1.508  0.0912  0.1449 -0.0440
 7266W        W17526   3.491   2.904   2.601  0.0012  0.0248  0.2595
 7267W        W17527  14.404   3.673   7.595 -0.0115  0.0629  0.1592
 7268W        W17528   9.551  10.465   0.678 -0.3050  0.1443  0.2135
 7269W        W17529   5.263   2.652   7.669  0.1707 -0.0531  0.4177
 7270W        W17530   0.888   7.755   1.219  0.0810 -0.0130  0.3074
 7271W        W17531   7.669   6.628   1.504 -0.1801  0.0011 -0.0394
 7272W        W17532  12.362   8.430   1.605 -0.1211 -0.0118 -0.0607
 7273W        W17533  15.529  10.005   7.513 -0.1965 -0.1336 -0.0022
 7274W        W17534   3.132   1.293   1.853  0.0290  0.0747 -0.0619
 7275W        W17535  15.483   7.543   2.349  0.5529 -0.1808  0.0583
 7276W        W17536   1.576  16.191   8.258  0.0145  0.2946  0.0969
 7277W        W17537   6.993   2.890   7.199 -0.2182  0.2328 -0.0558
 7278W        W17538   4.923  14.517   0.204  0.1356 -0.0131 -0.3331
 7279W        W17539  16.335   2.477   1.315  0.0176 -0.0407  0.1030
 7280W        W17540  15.810  15.500   7.351 -0.0177  0.3537  0.0337
 7281W        W17541   4.413   8.036   8.119 -0.2915 -0.2114 -0.0617
 7282W        W17542   1.038   3.587   2.084  0.4771 -0.3789 -0.3242
 7283W        W17543  15.198   5.405   0.415  0.0827  0.3449 -0.4235
 7284W        W17544  15.530  16.371   7.273  0.2186 -0.1710  0.0979
 7285W        W17545  13.917   4.347   1.769  0.2842  0.2151 -0.0286
 7286W        W17546  15.999   2.800   1.586 -0.0828  0.3041  0.0439
 7287W        W17547   1.855   4.942   6.525 -0.0933  0.2289 -0.2416
 7288W        W17548   4.230   3.332   1.034  0.1553  0.1307 -0.0423
 7289W        W17549   0.004   1.155   1.226  0.0231  0.2216 -0.5040
 7290W        W17550   0.229   6.253   7.369 -0.3831  0.1786 -0.0729
 7291W        W17551   3.696   9.924   7.209 -0.1100 -0.1768  0.2017
 7292W        W17552   5.168   4.410   0.051  0.1184 -0.1098 -0.0864
 7293W        W17553  13.794   7.613   1.242 -0.0125 -0.1112 -0.3792
 7294W        W17554   7.693   8.441   8.418  0.1729  0.2199  0.0327
 7295W        W17555  16.354   1.413   6.123 -0.1244  0.0851 -0.3858
 7296W        W17556  14.920   2.830   7.585  0.0862 -0.1057 -0.2531
 7297W        W17557   2.208   2.243   2.131  0.1337 -0.0521  0.2406
 7298W        W17558   0.984   3.111   8.472 -0.4570  0.3579  0.0859
 7299W        W17559   3.429   7.158   1.849  0.3724 -0.2380 -0.0934
 7300W        W17560   5.648   2.623   8.446 -0.0155 -0.0142  0.0103
 7301W        W17561   9.831   6.628   6.373 -0.0514  0.0065 -0.1580
 7302W        W17562   0.710   0.606   0.573 -0.2470 -0.4017  0.2917
 7303W        W17563   3.234  14.795   6.967  0.0240 -0.3481 -0.2040
 7304W        W17564   3.784   6.553   6.855  0.1301 -0.0800  0.1092
 7305W        W17565   3.458   5.117   0.448  0.1340 -0.0906  0.1629
 7306W        W17566  16.540   1.493   0.186  0.2033  0.2565  0.0224
 7307W        W17567  14.677   0.983   7.514 -0.2263  0.0522  0.0345
 7308W        W17568   3.561   5.503   0.133 -0.4933  0.2727  0.2519
 7309W        W17569  14.184   7.922   7.813 -0.1446 -0.1886 -0.4536
 7310W        W17570   5.193   4.859   7.231 -0.0493 -0.3438 -0.1965
 7311W        W17571  16.556  12.405   7.113 -0.2692 -0.1452 -0.3742
 7312W        W17572   5.202   4.538   2.129 -0.0380 -0.2469  0.1452
 7313W        W17573   7.191   9.633   0.843  0.0392  0.2189 -0.1774
 7314W        W17574  16.366   1.446   1.597  0.0160 -0.3044  0.0722
 7315W        W17575  14.768   1.891   7.214 -0.2015 -0.0857  0.0573
 7316W        W17576   0.832   6.948   6.549  0.1040 -0.1856 -0.1857
 7317W        W17577   5.605  15.804   0.892  0.1309  0.0543  0.0791
 7318W        W17578   1.704   9.540   8.272 -0.0240 -0.0830  0.0051
 7319W        W17579   3.155   2.715   1.582  0.3369 -0.2231 -0.0009
 7320W        W17580   3.676  10.368   8.378 -0.0000 -0.2976 -0.3611
 7321W        W17581   1.263   3.409   0.130  0.1670 -0.2513 -0.0913
 7322W        W17582   3.734  15.253   0.563 -0.1552 -0.4255 -0.0849
 7323W        W17583   1.828   7.297   7.890 -0.0551  0.1175 -0.0647
 7324W        W17584  16.345   6.087   7.150  0.5386 -0.1185  0.2279
 7325W        W17585   4.863   5.508   0.281 -0.0679  0.0242  0.1930
 7326W        W17586   3.121   8.679   7.136  0.2734  0.0714 -0.1732
 7327W        W17587  14.640   7.106   7.447 -0.2116  0.1472  0.0848
 7328W        W17588   4.516   2.971   7.127 -0.0063 -0.1458  0.2124
 7329W        W17589   3.690   7.412   6.776  0.2774  0.2021 -0.0949
 7330W        W17590  16.534  12.412   0.226 -0.0854 -0.1329  0.2253
 7331W        W17591   0.696   4.683   1.449 -0.2175  0.2718  0.1617
 7332W        W17592  14.154   2.573   1.151  0.1627  0.1824 -0.0165
 7333W        W17593   2.967  10.088   8.299  0.1316  0.0570 -0.2375
 7334W        W17594  11.912  12.749   2.741 -0.0029 -0.2379 -0.2264
 7335W        W17595  15.980  16.390   6.998 -0.0620  0.0344 -0.0128
 7336W        W17596  13.872   8.566   7.099  0.5175  0.3682 -0.1667
 7337W        W17597   2.830   7.747   1.437 -0.1140  0.2000  0.2604
 7338W        W17598   2.328   5.614   7.872  0.0706  0.1472 -0.0053
 7339W        W17599   7.514   8.000   1.411 -0.3149 -0.2489  0.2778
 7340W        W17600  12.649  13.089   0.218 -0.1024 -0.2383  0.0366
 7341W        W17601   5.305   9.854   7.973  0.1048 -0.1075  0.1106
 7342W        W17602  13.957   3.859   6.653  0.0835  0.4219  0.2048
 7343W        W17603  15.512   3.452   2.192 -0.1831  0.1806 -0.1524
 7344W        W17604   0.995   3.028   2.016  0.3220  0.1298  0.1006
 7345W        W17605   6.241   0.312   1.132  0.0419  0.0710 -0.3878
 7346W        W17606   6.790   5.956   6.672  0.0093 -0.3286 -0.1474
 7347W        W17607   3.351   5.428   7.835  0.2744 -0.2751 -0.0430
 7348W        W17608   9.478   6.694   7.636 -0.0201 -0.2938 -0.1563
 7349W        W17609   3.088  16.525   8.478 -0.2183  0.1363  0.1324
 7350W        W17610   4.965   6.529   1.089  0.1301 -0.3595 -0.0796
 7351W        W17611   4.402   2.147   7.590  0.1664  0.0442  0.1025
 7352W        W17612   7.361  15.922   0.601 -0.1173  0.0507  0.0570
 7353W        W17613  11.407   6.924   7.161  0.0759  0.1071 -0.1024
 7354W        W17614  12.158   7.591   7.874  0.1417  0.0800  0.1078
 7355W        W17615   2.091   1.682   1.472  0.0551  0.0985  0.1679
 7356W        W17616   9.653  16.193   1.879  0.0959 -0.1054 -0.2544
 7357W        W17617   3.261   8.768   1.153  0.2425  0.2440  0.1162
 7358W        W17618  13.714   6.419   6.829  0.1366  0.2299 -0.1771
 7359W        W17619   6.793   4.729   1.670 -0.1189  0.0399  0.0177
 7360W        W17620   3.331   8.174   1.036 -0.1123 -0.0986 -0.1283
 7361W        W17621   5.267   4.223   0.507 -0.1525  0.1023 -0.1114
 7362W        W17622   5.501   3.668   6.969 -0.2351  0.1353  0.1318
 7363W        W17623   4.657   2.820   8.130 -0.2332 -0.0949  0.1564
 7364W        W17624   3.074   6.602   1.745 -0.3801 -0.0704  0.0762
 7365W        W17625   2.995  10.687   0.188  0.1006 -0.1149 -0.1931
 7366W        W17626   7.509   5.693   7.963  0.3203 -0.0630 -0.2283
 7367W        W17627   9.717   2.090   0.445  0.2166  0.0609  0.0256
 7368W        W17628   7.942   7.807   1.716  0.0471  0.0205 -0.2756
 7369W        W17629   3.473   6.241   1.916  0.3271 -0.0601 -0.0183
 7370W        W17630  11.330  15.759   1.345 -0.1345 -0.1890 -0.1451
 7371W        W17631   5.507  16.586   2.143  0.0186  0.1238 -0.4870
 7372W        W17632   2.810   8.450   8.073 -0.0923  0.2309 -0.2484
 7373W        W17633   4.489   8.518   1.860  0.3834  0.0004  0.5407
 7374W        W17634   8.501  15.423   8.651  0.1667 -0.3231  0.1234
 7375W        W17635   5.015   3.559   8.654 -0.2140 -0.4824  0.1404
 7376W        W17636   5.089   6.601   8.113  0.3040 -0.2323 -0.1140
 7377W        W17637   9.353   5.979   7.816  0.1122 -0.1940  0.0519
 7378W        W17638   5.088   6.031   1.068  0.0205  0.2230  0.3876
 7379W        W17639   0.235   0.860   0.631 -0.0253  0.0485 -0.4242
 7380W        W17640   0.144   5.777   7.112  0.0665 -0.1953  0.3194
 7381W        W17641  14.941   8.231   0.865  0.0866  0.0246 -0.1475
 7382W        W17642   7.927   7.257   1.864  0.0593  0.0151 -0.0680
 7383W        W17643  13.633  11.219   0.563  0.1264 -0.1515 -0.0108
 7384W        W17644   4.660   1.715   0.733 -0.2132  0.2206  0.2216
 7385W        W17645   3.357   2.754   6.532  0.0852  0.0676 -0.1992
 7386W        W17646   8.259   8.727   1.136 -0.1007 -0.0915 -0.1588
 7387W        W17647  10.169   1.228   0.953 -0.1941 -0.0694  0.0858
 7388W        W17648   2.195   2.719   1.521 -0.0673  0.3201  0.0838
 7389W        W17649   3.720   8.124   7.513 -0.1207  0.2184 -0.0449
 7390W        W17650   3.475  11.157   1.110  0.1186 -0.0645  0.0059
 7391W        W17651   0.820  11.022   7.485  0.0254  0.0645 -0.1331
 7392W        W17652   1.503   1.377   8.136 -0.0802 -0.3309 -0.0103
 7393W        W17653   9.122   7.849   2.325  0.0357  0.1623 -0.0273
 7394W        W17654   7.292   7.814   1.960 -0.1119  0.3817  0.1559
 7395W        W17655   9.240   4.433   1.480 -0.1714  0.1704  0.2119
 7396W        W17656   5.505   3.028   1.728  0.2761  0.2399  0.2754
 7397W        W17657   5.947   1.280   8.414  0.1002 -0.0515  0.0661
 7398W        W17658   7.411   1.609   1.559  0.1083  0.1591 -0.0172
 7399W        W17659  10.495  11.901   0.824  0.1292 -0.3122  0.3380
 7400W        W17660   2.200   4.965   0.435 -0.0336 -0.1330  0.0221
 7401W        W17661   4.188  14.351   7.243 -0.0945 -0.0360  0.1050
 7402W        W17662  15.493  14.445   8.570 -0.0704 -0.2589  0.2294
 7403W        W17663   6.624   1.389   7.447  0.1060 -0.2459 -0.1711
 7404W        W17664   8.867   6.096   7.448  0.0919 -0.0429  0.1098
 7405W        W17665   3.645  11.285   0.430  0.1992  0.1767 -0.0691
 7406W        W17666   6.309   4.907   8.517 -0.2469 -0.2325 -0.1682
 7407W        W17667   2.001   9.986   8.398  0.0566  0.0609 -0.1842
 7408W        W17668   6.367   3.925   2.348  0.0272  0.1685  0.0546
 7409W        W17669   6.469   4.361   1.591  0.0112  0.2940  0.0363
 7410W        W17670   6.242   7.231   8.014  0.1962 -0.0842  0.1190
 7411W        W17671   7.895   5.655   8.386 -0.2725  0.3380 -0.1612
 7412W        W17672   6.562   2.724   6.315  0.0847  0.0402 -0.0051
 7413W        W17673  11.597   5.714   7.962 -0.0441  0.2879  0.0580
 7414W        W17674  12.366   5.213   0.047 -0.3776  0.0165 -0.0396
 7415W        W17675   7.401   6.706   7.598  0.0130 -0.1049  0.2225
 7416W        W17676   4.616   8.075   1.426 -0.1079  0.2418  0.2420
 7417W        W17677   0.372  15.893   6.946 -0.0716 -0.1233 -0.1537
 7418W        W17678   2.754   5.609   8.141 -0.2593 -0.3276 -0.0906
 7419W        W17679   8.068   5.392   1.413  0.2314  0.1364 -0.2030
 7420W        W17680   1.435   0.289   0.058 -0.3145 -0.0386 -0.3756
 7421W        W17681   7.508   2.939   1.928  0.0040  0.0751  0.0329
 7422W        W17682   1.718   2.444   8.410  0.0237  0.1791 -0.1321
 7423W        W17683   5.809   0.898   7.457 -0.0397 -0.0310  0.1014
 7424W        W17684   5.067   0.246   7.612  0.0335 -0.3376  0.0203
 7425W        W17685   8.331   4.218   0.211  0.1300 -0.2309  0.1431
 7426W        W17686   3.215   2.508   7.683  0.0082 -0.2559  0.0063
 7427W        W17687   2.554   5.078   6.998  0.1714 -0.0200  0.1977
 7428W        W17688  11.473   6.952   0.829  0.2467  0.0926  0.0747
 7429W        W17689   4.421  14.642   0.012 -0.0147 -0.0192 -0.2456
 7430W        W17690   5.665   2.652   1.430  0.2153 -0.1273 -0.1529
 7431W        W17691   2.911   5.069   1.836 -0.3145  0.0590  0.1939
 7432W        W17692   9.286   6.822   0.273  0.0198 -0.0703  0.0573
 7433W        W17693   1.792   9.690   6.615  0.0930 -0.0285 -0.3960
 7434W        W17694   8.835   3.120   1.928 -0.4982  0.0277 -0.1473
 7435W        W17695  16.367   8.868   0.892 -0.2203  0.2890 -0.0306
 7436W        W17696   5.950   3.396   7.983  0.2327  0.1126  0.1899
 7437W        W17697   7.447   2.560   0.703 -0.1808 -0.2986  0.0883
 7438W        W17698   2.733   6.374   6.514 -0.1527 -0.1465  0.1401
 7439W        W17699   9.355   4.221   6.977  0.0494 -0.0625  0.0699
 7440W        W17700   2.011   5.649   0.947 -0.1654 -0.1067 -0.2215
 7441W        W17701   6.238   4.584   0.778 -0.1969 -0.0186  0.0953
 7442W        W17702   6.148   2.527   1.329 -0.2860 -0.1146  0.0053
 7443W        W17703   1.407   5.229   0.474 -0.0157 -0.3181 -0.2695
 7444W        W17704   1.325   2.265   8.111 -0.0200 -0.0125  0.0027
 7445W        W17705   1.416   7.728   7.575 -0.1429 -0.0819  0.0730
 7446W        W17706   4.521   4.146   1.362  0.1173 -0.1844  0.1259
 7447W        W17707   7.249   2.184   2.514  0.4212  0.0759  0.1349
 7448W        W17708   5.199   6.688   7.236 -0.2600 -0.0943  0.1844
 7449W        W17709   3.136   3.489   7.261  0.2054  0.0102  0.2168
 7450W        W17710   6.994   2.434   1.107 -0.1483 -0.0463 -0.2512
 7451W        W17711   8.505   2.257   0.313  0.3906  0.2863 -0.2112
 7452W        W17712   2.920   1.674   7.234  0.1516 -0.0548  0.0706
 7453W        W17713   7.082   3.615   7.966  0.0385  0.2062  0.1447
 7454W        W17714   1.632  12.420   0.008  0.0189 -0.0596 -0.1142
 7455W        W17715  13.969   1.622   0.941 -0.0408 -0.2030  0.0347
 7456W        W17716  10.228   3.580   8.422  0.7069  0.2676  0.2584
 7457W        W17717   6.232   0.640   0.198 -0.1841  0.2440  0.2851
 7458W        W17718   1.652   6.923   8.160  0.0588 -0.3372  0.0371
 7459W        W17719  14.713   8.538   0.000  0.0896 -0.0483 -0.4548
 7460W        W17720   3.119   2.205   8.085 -0.1810  0.3365 -0.1492
 7461W        W17721  10.335   5.338   6.799 -0.2453  0.4906 -0.0600
 7462W        W17722  10.034   5.480   0.156  0.2294  0.0744 -0.2255
 7463W        W17723   5.427   6.826   1.983 -0.1648  0.0157  0.0523
 7464W        W17724   7.728  10.030   7.436 -0.1652  0.1197 -0.3644
 7465W        W17725   5.381   3.509   0.559 -0.0761 -0.1441 -0.0157
 7466W        W17726   2.203   1.930   8.260  0.1132 -0.0995 -0.0033
 7467W        W17727   4.217   8.937   1.770  0.0978  0.0538  0.1770
 7468W        W17728   9.452   2.164   1.565 -0.2400 -0.3266  0.0670
 7469W        W17729  14.029   1.557   0.453 -0.1371  0.0705 -0.0714
 7470W        W17730   6.001   3.972   0.003 -0.2494  0.0151  0.1899
 7471W        W17731   5.827   6.072   6.281  0.3862 -0.0721 -0.1816
 7472W        W17732   7.950   6.792   6.801  0.0198 -0.1472  0.1163
 7473W        W17733   3.637   3.333   0.541  0.3860 -0.0621  0.0446
 7474W        W17734   5.652   6.683   7.030 -0.0541  0.0151  0.3417
 7475W        W17735   3.482   4.665   0.624 -0.0803  0.0116 -0.0306
 7476W        W17736   4.212   6.332   6.961  0.1096  0.0258  0.0213
 7477W        W17737   1.767   8.326   8.322  0.1979  0.0132  0.2499
 7478W        W17738  15.793  15.854   7.989 -0.2594 -0.1651  0.0718
 7479W        W17739   5.967   1.500   7.006 -0.2188 -0.1706 -0.0027
 7480W        W17740   1.321   7.134   1.260  0.0925  0.1742 -0.0958
 7481W        W17741   8.223   7.565   0.040 -0.2889  0.2219 -0.1765
 7482W        W17742   4.103   2.668   0.347 -0.2114 -0.1088 -0.2347
 7483W        W17743   6.972   3.865   2.238 -0.0146  0.0272 -0.0807
 7484W        W17744   2.923   9.587   6.958  0.1437 -0.1722 -0.1118
 7485W        W17745   3.823   3.029   0.919  0.3041  0.0663 -0.1956
 7486W        W17746  16.384   0.739   1.068 -0.2570 -0.2408  0.2080
 7487W        W17747  12.083   4.723   2.136 -0.4232  0.0692 -0.1180
 7488W        W17748   4.996   6.997   2.229  0.0217  0.0828  0.0235
 7489W        W17749   6.964   3.216   6.247 -0.0362 -0.0594  0.2178
 7490W        W17750   5.661   5.235   0.830  0.0904 -0.0480 -0.1848
 7491W        W17751   6.877   2.984   0.876 -0.0025 -0.0256 -0.3328
 7492W        W17752   7.375   5.493   1.431  0.0346 -0.1799 -0.1222
 7493W        W17753  15.731   0.034   2.786  0.1437 -0.1135 -0.2306
 7494W        W17754  16.064   4.743   7.822 -0.0981  0.1660 -0.0337
 7495W        W17755   4.205   3.586   1.601 -0.1569 -0.5280  0.0440
 7496W        W17756   7.763   2.811   0.353 -0.1665  0.0017  0.1479
 7497W        W17757   7.913  10.811   1.774 -0.2579 -0.1572  0.0023
 7498W        W17758   3.958   7.899   0.699  0.1700  0.1611  0.0620
 7499W        W17759   1.813   3.369   1.431 -0.1545  0.0406 -0.0280
 7500W        W17760   8.172   7.930   0.414  0.1062  0.2166  0.1212
 7501W        W17761   5.488  16.005   7.590  0.0292 -0.0811 -0.1637
 7502W        W17762   4.791   4.128   0.925 -0.0127  0.0669 -0.3429
 7503W        W17763   2.906   0.872   2.718 -0.0198  0.2200 -0.1419
 7504W        W17764   4.630   4.618   8.628 -0.0353  0.0702  0.1774
 7505W        W17765   4.774   7.199   7.788  0.0780 -0.0454 -0.1514
 7506W        W17766  11.284   1.716   7.309  0.0714 -0.0755 -0.1740
 7507W        W17767   5.840   4.398   6.708 -0.0366 -0.2089  0.1810
 7508W        W17768   0.340   4.299   0.532 -0.0496 -0.2789  0.1132
 7509W        W17769   2.936   6.745   6.797 -0.0254  0.0631  0.0668
 7510W        W17770   1.617  11.354   2.166  0.0026  0.3689 -0.1505
 7511W        W17771   0.821  16.218   2.075  0.0395 -0.0394  0.4207
 7512W        W17772   0.799  15.070   1.891  0.0242 -0.2814  0.0628
 7513W        W17773   4.671   3.244   1.437 -0.1759 -0.2767  0.0284
 7514W        W17774   7.777   5.300   0.027  0.2142  0.0422  0.1864
 7515W        W17775   1.982   2.854   7.047  0.1733 -0.0878 -0.0464
 7516W        W17776   4.031   5.706   0.137  0.1120 -0.1952  0.1048
 7517W        W17777   0.623   1.725   6.860  0.0652  0.2158  0.0359
 7518W        W17778  10.766   5.646   6.861 -0.1708  0.0496  0.1262
 7519W        W17779   0.184  12.716   1.978  0.1772  0.1680 -0.2828
 7520W        W17780   7.611   2.974   1.444  0.0440 -0.0393  0.0859
 7521W        W17781   7.032   5.199   8.393 -0.1405 -0.3409 -0.2495
 7522W        W17782   9.802   5.364   1.545  0.0499 -0.0796  0.2012
 7523W        W17783   3.421   1.473   6.618 -0.1233  0.0635 -0.0867
 7524W        W17784   0.417  15.900   2.218 -0.4242  0.1116 -0.1581
 7525W        W17785   8.585   7.171   1.947 -0.0032 -0.1245 -0.1754
 7526W        W17786   6.439   6.794   0.382  0.1774 -0.0215  0.2657
 7527W        W17787   8.301   9.059   8.238  0.1570 -0.0970 -0.4033
 7528W        W17788   8.267  14.815   7.113 -0.0961  0.0520 -0.1051
 7529W        W17789   6.818   8.803   0.034 -0.3067  0.3053 -0.0755
 7530W        W17790   2.551   2.442   1.760 -0.0822 -0.1329 -0.1154
 7531W        W17791   0.543   4.067   8.478  0.0672 -0.0182  0.2535
 7532W        W17792   3.395  15.780   8.176 -0.1583 -0.0211 -0.2204
 7533W        W17793   0.637   2.150   0.690  0.5266  0.1078 -0.3388
 7534W        W17794   6.560   8.244   0.119 -0.1072  0.1597 -0.0728
 7535W        W17795  10.404  11.103   2.193  0.0611  0.0281 -0.1460
 7536W        W17796   2.351   7.787   0.020  0.0049  0.1104  0.0181
 7537W        W17797   9.337   2.675   1.434  0.2318  0.0047  0.0826
 7538W        W17798   2.771   7.922   8.046 -0.2588  0.0544 -0.2099
 7539W        W17799   4.990   7.573   0.727  0.2627  0.0073  0.2357
 7540W        W17800   4.356   1.241   8.318 -0.1264  0.1119 -0.0231
 7541W        W17801   3.115   7.296   7.983  0.1169 -0.0586 -0.2127
 7542W        W17802   5.037   9.129   8.213  0.0739  0.0583 -0.0476
 7543W        W17803   3.440   7.680   7.197 -0.2427  0.1700  0.0465
 7544W        W17804   8.366   2.981   0.364  0.2644  0.1072 -0.0409
 7545W        W17805   2.322   1.139   0.543 -0.0198  0.2769 -0.2544
 7546W        W17806   4.142   4.108   1.709 -0.1443 -0.2323 -0.1849
 7547W        W17807   7.419   6.200   1.393 -0.1674  0.1490 -0.0553
 7548W        W17808   6.592   7.231   7.623  0.2608  0.0357 -0.0697
 7549W        W17809   0.970   0.453   1.543  0.0325  0.2009 -0.1518
 7550W        W17810   7.319   2.536   7.965 -0.1030  0.2772  0.4113
 7551W        W17811   1.603   9.550   1.922  0.1969  0.0779 -0.1400
 7552W        W17812   8.169   2.819   7.649 -0.2558  0.0774  0.0123
 7553W        W17813   5.856   4.777   1.083 -0.3340  0.1240  0.1783
 7554W        W17814   8.185   9.963   1.665 -0.1474 -0.0667  0.0277
 7555W        W17815   6.517   2.913   1.971 -0.5778  0.0485 -0.0420
 7556W        W17816   1.436   2.155   7.632 -0.4298 -0.2196  0.1097
 7557W        W17817   6.552   2.589   1.060  0.2253  0.2756  0.3965
 7558W        W17818  12.819   2.642   0.089  0.1186 -0.0185  0.0906
 7559W        W17819   8.194   5.748   0.125 -0.1740  0.1696  0.1092
 7560W        W17820  10.159   8.102   0.714 -0.0359  0.1654  0.0843
 7561W        W17821   7.740   2.573   7.628  0.0896  0.1193 -0.0310
 7562W        W17822  14.106   2.339   7.981 -0.2384  0.0568  0.0314
 7563W        W17823  10.781   5.067   1.669 -0.1788  0.2726  0.2024
 7564W        W17824  12.504   6.235   7.345 -0.1756 -0.2163  0.0392
 7565W        W17825   0.793   7.773   8.445  0.0677  0.1107 -0.0615
 7566W        W17826  13.265   3.713   1.356  0.0842 -0.1205 -0.2550
 7567W        W17827   2.772   3.211   8.185 -0.1388 -0.1502  0.1112
 7568W        W17828  12.085  13.013   8.330 -0.2104 -0.2261 -0.0058
 7569W        W17829   5.646   4.376   1.344  0.0299 -0.3099  0.2724
 7570W        W17830   6.605   0.895   8.336 -0.2143 -0.2705 -0.0094
 7571W        W17831   6.995   6.105   0.015  0.2162 -0.3035 -0.0566
 7572W        W17832   0.574   4.253   1.539 -0.0553 -0.2209  0.1105
 7573W        W17833   0.364   2.049   7.574 -0.2796 -0.0552 -0.0276
 7574W        W17834  13.211   7.580   1.043 -0.4057 -0.1919 -0.2802
 7575W        W17835   8.717   2.720   8.633 -0.0740  0.2231 -0.0823
 7576W        W17836   5.009  16.016   0.602 -0.1343  0.1825  0.0875
 7577W        W17837  12.374   1.833   7.289  0.0461  0.0709 -0.1490
 7578W        W17838  10.823   8.890   8.152 -0.0411 -0.0261 -0.3710
 7579W        W17839   7.993   5.662   0.604 -0.2982  0.1776  0.1569
 7580W        W17840  14.158   5.440   8.427  0.0797  0.1364  0.1813
 7581W        W17841   4.304   5.823   2.171 -0.5373  0.4797  0.0405
 7582W        W17842   5.634   0.514   1.265 -0.0805 -0.0893 -0.3017
 7583W        W17843   9.731  14.555   0.292  0.0719  0.2021 -0.2096
 7584W        W17844  10.945   9.861   1.933 -0.2412 -0.0382 -0.0597
 7585W        W17845   9.867   5.204   6.574  0.2021  0.0356  0.2308
 7586W        W17846   8.185   5.769   2.655 -0.0219  0.2536 -0.0066
 7587W        W17847   0.599   3.287   7.207  0.4359 -0.2762 -0.0508
 7588W        W17848   2.901  14.568   2.309  0.2993  0.2230  0.1381
 7589W        W17849  10.905   2.487   1.143  0.0284 -0.2897 -0.1908
 7590W        W17850   8.943   6.851   2.089  0.1578  0.1477 -0.0962
 7591W        W17851   5.627   9.767   6.776 -0.0464  0.0120  0.0660
 7592W        W17852   5.079   5.854   7.417  0.2189  0.1611  0.0145
 7593W        W17853   8.226   3.604   0.379 -0.2984  0.0756 -0.0671
 7594W        W17854   1.136   8.230   1.172 -0.2655 -0.1139  0.0187
 7595W        W17855   2.665  11.121   2.141 -0.1779 -0.2240  0.1600
 7596W        W17856   8.286   6.554   0.655 -0.0722  0.0920 -0.0530
 7597W        W17857   5.952   7.772   7.249 -0.0890  0.0604 -0.1581
 7598W        W17858  12.344  16.149   7.343  0.0055 -0.0187  0.2580
 7599W        W17859   8.005   4.166   7.615 -0.1624  0.0609 -0.1634
 7600W        W17860  16.092   2.886   6.967 -0.0785  0.0802  0.0245
 7601W        W17861   5.662   2.719   0.772 -0.1989 -0.2617  0.2474
 7602W        W17862  10.201  14.506   1.651  0.0495  0.1913 -0.0684
 7603W        W17863   6.748  10.174   1.766 -0.0844  0.0421  0.1688
 7604W        W17864   5.868   5.013   1.841 -0.1239  0.0184 -0.2046
 7605W        W17865  11.805   8.365   6.781 -0.0800 -0.0888  0.0271
 7606W        W17866   9.916   6.685   1.912  0.1451  0.0117 -0.0419
 7607W        W17867   7.787   6.632   0.178 -0.1556 -0.2468  0.0907
 7608W        W17868   4.887   2.012   7.358  0.0734  0.1465  0.0866
 7609W        W17869   7.982   0.915   0.555 -0.0736  0.1057  0.0351
 7610W        W17870  11.307   6.679   0.376  0.0798  0.0789  0.0198
 7611W        W17871  12.722   9.062   0.185  0.2698  0.0696  0.1294
 7612W        W17872   5.585   6.642   7.583 -0.0406 -0.2289  0.0898
 7613W        W17873   8.010   4.835   1.349  0.0197 -0.1720  0.0316
 7614W        W17874   4.372   9.487   1.730 -0.1347 -0.1184 -0.0475
 7615W        W17875  11.506   8.029   7.976 -0.1872  0.0667 -0.1261
 7616W        W17876   7.058   3.754   1.711  0.1758  0.1400 -0.0967
 7617W        W17877  10.605   9.139   7.558  0.1885 -0.0611 -0.1211
 7618W        W17878  11.111   5.548   0.303 -0.0654 -0.0894 -0.1359
 7619W        W17879   5.411   7.460   0.508  0.0981 -0.2186  0.0437
 7620W        W17880  11.816   1.747   0.253  0.1675  0.0853 -0.0868
 7621W        W17881   5.930   3.971   8.087 -0.3326  0.0488 -0.0174
 7622W        W17882   7.386   7.172   7.466  0.0578  0.1287  0.3774
 7623W        W17883  12.062   4.403   0.169  0.0904 -0.2120 -0.0890
 7624W        W17884   8.738   8.583   6.237 -0.4467  0.0548  0.0292
 7625W        W17885  10.724  10.350   8.515  0.0281 -0.1299  0.4585
 7626W        W17886  15.669  12.635   0.654  0.0407 -0.2741  0.1989
 7627W        W17887   1.357   1.753   0.683  0.2704  0.0880 -0.3692
 7628W        W17888   1.174   4.302   7.006 -0.0294 -0.0211 -0.1895
 7629W        W17889   2.915   3.045   7.193 -0.3200 -0.2567  0.3283
 7630W        W17890  10.330   7.680   6.670 -0.1681  0.1043  0.3718
 7631W        W17891   4.773   2.117   0.103  0.0277 -0.1650  0.0448
 7632W        W17892   4.830   1.345   1.041 -0.0594  0.0949 -0.0270
 7633W        W17893   6.993   3.006   1.847 -0.0621  0.2089  0.2723
 7634W        W17894   8.759   3.498   1.430  0.1282 -0.0349 -0.1540
 7635W        W17895   4.148  10.876   1.925 -0.1153  0.3145 -0.1881
 7636W        W17896   9.363   8.787   8.139 -0.0965 -0.0331  0.1584
 7637W        W17897  12.112   6.499   8.406 -0.1731  0.0065  0.1746
 7638W        W17898  11.519   0.550   8.248  0.2890  0.1030 -0.2843
 7639W        W17899   9.618  11.211   6.840 -0.1058  0.1819 -0.4180
 7640W        W17900   9.218   3.748   1.549 -0.2128  0.2081 -0.0536
 7641W        W17901  12.798  12.183   6.674  0.0347  0.0666  0.0005
 7642W        W17902  10.983   5.168   7.076  0.0664 -0.1913 -0.2103
 7643W        W17903   3.159   4.967   8.276 -0.1091 -0.0666 -0.0397
 7644W        W17904   9.793   3.607   8.163 -0.1391 -0.0779 -0.0772
 7645W        W17905   9.822   1.413   7.330 -0.1561  0.0293  0.0919
 7646W        W17906   7.240   1.998   8.169  0.0354  0.0505 -0.1913
 7647W        W17907  10.438   8.212   6.488 -0.1450  0.2177  0.2038
 7648W        W17908   8.883   4.263   7.270  0.1122 -0.1403  0.2134
 7649W        W17909   6.887  10.487   8.422 -0.0371 -0.2083 -0.0741
 7650W        W17910   6.401   0.551   6.680 -0.1653  0.1942 -0.0783
 7651W        W17911   7.870  14.466   7.190  0.0289 -0.2268  0.1564
 7652W        W17912   5.816   4.485   8.024  0.0269 -0.1137 -0.0607
 7653W        W17913  10.627   5.369   0.656  0.0207  0.0011  0.2030
 7654W        W17914  11.201   8.795   6.363 -0.1991  0.3143 -0.0880
 7655W        W17915   8.859   4.505   1.182 -0.1194 -0.0935  0.0398
 7656W        W17916  10.512   9.393   6.566  0.2632 -0.3017  0.2982
 7657W        W17917   6.933   3.463   0.711 -0.0459 -0.2922  0.2793
 7658W        W17918   8.523   7.941   0.794  0.1976 -0.2093 -0.3287
 7659W        W17919   9.891  12.277   7.442  0.0530 -0.3910  0.0442
 7660W        W17920  11.963   2.854   7.792 -0.2046 -0.1969 -0.1726
 7661W        W17921   9.287   9.050   1.890  0.0371  0.0669 -0.0870
 7662W        W17922  12.285   3.292   8.092  0.1085  0.1394  0.2472
 7663W        W17923  12.416   5.166   7.404  0.0309  0.0924 -0.1329
 7664W        W17924   1.804   0.337   7.390  0.0684 -0.1652 -0.1582
 7665W        W17925  10.664  10.053   1.508  0.0862  0.0675 -0.1044
 7666W        W17926   9.642   9.663   1.390 -0.0678  0.0110 -0.1496
 7667W        W17927  13.103   5.769   1.094  0.0261 -0.1273 -0.3325
 7668W        W17928   9.585   4.923   0.559 -0.1239 -0.2817  0.2769
 7669W        W17929  14.200   9.583   7.677  0.1255  0.1856 -0.1250
 7670W        W17930   9.021   5.559   0.380  0.3125  0.1679  0.0055
 7671W        W17931   8.411   3.842   2.162  0.0769 -0.3195  0.0376
 7672W        W17932   5.581   5.837   7.542 -0.0978 -0.1647  0.2685
 7673W        W17933   9.079  10.014   7.151 -0.1572 -0.1340  0.1957
 7674W        W17934  16.586   3.171   8.629  0.4103 -0.0625  0.2009
 7675W        W17935  10.925   6.730   7.965 -0.1696 -0.3352 -0.1108
 7676W        W17936  10.371   6.772   6.123  0.3083 -0.1067 -0.0923
 7677W        W17937   9.265   3.936   8.087 -0.1643  0.2422 -0.0926
 7678W        W17938  10.592   5.501   1.586  0.0230 -0.0852 -0.0206
 7679W        W17939   4.667   5.757   7.757 -0.0453  0.0257  0.0550
 7680W        W17940   9.104   0.136   0.021  0.1258  0.1165 -0.0208
 7681W        W17941   0.535   4.798   0.434 -0.0513 -0.0787 -0.0228
 7682W        W17942   7.721   6.487   8.147 -0.0667  0.0723 -0.1150
 7683W        W17943   1.840   8.104   7.271  0.2554 -0.2406  0.1258
 7684W        W17944  14.719  10.459   7.900  0.0783  0.0283  0.0400
 7685W        W17945   9.055   5.248   7.296 -0.0297  0.2015  0.3347
 7686W        W17946   5.398   6.103   0.140 -0.0346 -0.0111 -0.0714
 7687W        W17947  10.474   0.555   1.890 -0.1534  0.0818 -0.4160
 7688W        W17948  12.019   6.984   8.569 -0.0301 -0.0227 -0.1573
 7689W        W17949   1.647   3.116   7.749  0.2103 -0.0617 -0.1251
 7690W        W17950  13.365   8.719   7.178  0.3699 -0.3398  0.1100
 7691W        W17951   1.850  10.773   8.662 -0.2313 -0.0638 -0.1024
 7692W        W17952  11.463   5.866   7.347 -0.1400  0.1777 -0.2640
 7693W        W17953   4.380  16.334   7.153 -0.2519  0.1209 -0.0937
 7694W        W17954   5.010  11.772   0.730  0.0006  0.1051 -0.2128
 7695W        W17955  11.050   5.068   0.428 -0.1624  0.1174  0.1228
 7696W        W17956   5.498   3.206   7.585 -0.0650 -0.1534 -0.2150
 7697W        W17957  12.258   1.488   7.704  0.2932 -0.3618 -0.0555
 7698W        W17958  11.915   7.179   2.612  0.1143  0.0070 -0.1820
 7699W        W17959   5.463   3.973   0.997  0.1789 -0.3872  0.0765
 7700W        W17960  10.830   3.144   8.606  0.1383  0.3259  0.2709
 7701W        W17961   5.452   2.341   8.034 -0.2811 -0.0127  0.2497
 7702W        W17962   7.315   4.635   1.668 -0.3449  0.0279  0.0864
 7703W        W17963   9.347   0.943   1.991  0.2267  0.1112  0.1241
 7704W        W17964   8.589   6.012   0.427 -0.2073 -0.3046  0.1437
 7705W        W17965   4.683   3.233   0.878  0.1552  0.0174 -0.2475
 7706W        W17966   6.970   1.643   0.814  0.0654  0.2109  0.0948
 7707W        W17967   7.103   4.461   7.353  0.2892 -0.1399 -0.1904
 7708W        W17968  15.367   8.068   0.072 -0.1878 -0.1066 -0.1997
 7709W        W17969   9.469   3.722   7.606  0.0128  0.3520 -0.0295
 7710W        W17970   9.002   9.519   8.039  0.2820 -0.0068  0.1319
 7711W        W17971   8.187   5.247   0.275  0.2090 -0.4394  0.3159
 7712W        W17972  15.451   8.210   8.134  0.0655 -0.1030  0.2592
 7713W        W17973   9.781   8.304   0.226 -0.0521 -0.3846 -0.2337
 7714W        W17974   8.646   2.625   2.124  0.0157 -0.0107 -0.0446
 7715W        W17975   8.133   6.833   1.653 -0.1333  0.3095  0.1343
 7716W        W17976   3.346  10.082   1.638  0.0174 -0.4079  0.2940
 7717W        W17977  10.010   4.236   7.499  0.1189 -0.0854 -0.0714
 7718W        W17978   7.655  10.765   6.336  0.1887 -0.3474 -0.0899
 7719W        W17979   7.509   1.859   2.163 -0.1660 -0.0803  0.0712
 7720W        W17980   9.806   4.106   6.624  0.2880 -0.2244 -0.0084
 7721W        W17981  14.165   6.690   1.090  0.2089  0.0705 -0.2747
 7722W        W17982  10.949   3.128   7.858 -0.0981 -0.0332 -0.0974
 7723W        W17983  12.083   8.234   1.250  0.0371 -0.0730 -0.0125
 7724W        W17984   9.112   4.292   0.788  0.0830  0.0230 -0.0370
 7725W        W17985   6.116   4.074   0.702 -0.0099  0.0227  0.0070
 7726W        W17986   9.924   2.117   1.384  0.0928 -0.2042 -0.1193
 7727W        W17987   3.539   2.232   7.227  0.1966  0.1521 -0.0372
 7728W        W17988  10.357   6.722   8.658  0.2413 -0.0306 -0.0028
 7729W        W17989  11.401  12.832   1.102  0.0776  0.1804 -0.0254
 7730W        W17990   7.515   7.384   8.348  0.1133  0.1856  0.0840
 7731W        W17991  11.486   5.485   1.095  0.0223 -0.3975  0.0544
 7732W        W17992   4.244   5.814   1.665  0.1649 -0.0135 -0.0098
 7733W        W17993   0.698   2.166   1.759  0.2025 -0.3363  0.1308
 7734W        W17994  12.232   7.429   6.417 -0.4567 -0.0786 -0.0551
 7735W        W17995   9.211  14.521   0.363 -0.1770  0.1875 -0.1409
 7736W        W17996   6.819   2.573   0.553 -0.3612 -0.1763 -0.0469
 7737W        W17997  10.228   5.837   1.486 -0.0362 -0.0231 -0.0469
 7738W        W17998   6.550   6.251   1.571  0.1469 -0.1320  0.0382
 7739W        W17999   4.710   5.159   7.909 -0.0495 -0.0068 -0.4141
 7740W        W18000   7.874   5.747   7.625  0.0265  0.2131 -0.2672
 7741W        W18001   4.615   3.392   7.426  0.0683  0.0980  0.0451
 7742W        W18002   8.787   7.192   8.009 -0.0405  0.0411  0.2522
 7743W        W18003  14.380   8.144   0.968  0.0991  0.0252  0.0236
 7744W        W18004   8.469   6.415   8.635  0.0026  0.1501  0.0298
 7745W        W18005   9.094   6.940   0.734 -0.1610 -0.0485 -0.0300
 7746W        W18006  13.005   6.536   2.361 -0.0990  0.1331 -0.2201
 7747W        W18007   5.778   3.236   2.096 -0.1859 -0.0181  0.0030
 7748W        W18008  10.930   5.813   1.380  0.0791 -0.1147 -0.0840
 7749W        W18009  10.174   7.169   1.371 -0.2419 -0.1098  0.2076
 7750W        W18010  10.992   0.712   8.330  0.1585 -0.2326 -0.0738
 7751W        W18011   3.687   1.535   7.718  0.0518 -0.1188 -0.3836
 7752W        W18012   2.781   5.753   7.118  0.1480  0.0140  0.1470
 7753W        W18013   1.104   9.293   0.647 -0.2294  0.0247  0.0224
 7754W        W18014  13.787   6.158   8.588  0.1209 -0.1028  0.1742
 7755W        W18015   7.979   0.987   7.451  0.2615  0.1355  0.2877
 7756W        W18016  13.460  10.739   7.514  0.0639  0.2029 -0.1761
 7757W        W18017  13.663  15.081   1.334 -0.0970 -0.2560 -0.1760
 7758W        W18018  11.994  16.562   0.158 -0.1249  0.0318 -0.0077
 7759W        W18019   1.801   2.985   1.086  0.1033  0.2404 -0.0339
 7760W        W18020   6.465   1.066   7.820  0.0575 -0.2511 -0.5324
 7761W        W18021  11.910   5.207   0.186  0.2439 -0.0433  0.0347
 7762W        W18022   6.971   6.069   1.346 -0.1052 -0.1940 -0.0880
 7763W        W18023  13.918   1.633   5.974  0.0276 -0.1684 -0.3129
 7764W        W18024   5.164   4.889   8.271 -0.1774 -0.0662  0.0910
 7765W        W18025  15.606   7.409   7.010  0.1446 -0.2153 -0.5309
 7766W        W18026  11.561   9.421   7.536  0.2284  0.1271 -0.2026
 7767W        W18027   9.128   5.586   1.284  0.0387  0.1075  0.0536
 7768W        W18028  13.621   9.995   0.588  0.0548  0.3483  0.1911
 7769W        W18029  12.797   8.523   0.667  0.1284  0.0121  0.1309
 7770W        W18030  13.013   9.471   0.875 -0.0572  0.2475  0.0927
 7771W        W18031  11.130  10.520   0.752  0.1170 -0.0338  0.3589
 7772W        W18032  11.385   9.778   6.724 -0.1421 -0.2163 -0.1902
 7773W        W18033  12.813   4.460   0.964  0.1818  0.2524  0.1585
 7774W        W18034   7.848   6.181   7.378  0.2208  0.2030 -0.2150
 7775W        W18035  14.626   0.245   1.729  0.0354 -0.0591  0.4796
 7776W        W18036   4.542   5.329   0.914 -0.0219  0.0595  0.2355
 7777W        W18037   9.786  14.973   8.612  0.0853 -0.1380  0.2337
 7778W        W18038   8.858   9.795   0.750 -0.0046  0.0706  0.0394
 7779W        W18039   8.041   3.369   1.420 -0.2024 -0.1496 -0.2623
 7780W        W18040   3.339   3.676   0.087  0.1184 -0.0811  0.1301
 7781W        W18041   9.456   3.232   8.207  0.1086 -0.0438  0.0703
 7782W        W18042  12.278   6.614   7.021  0.1911  0.3998 -0.3528
 7783W        W18043  15.059   2.857   0.711 -0.0124 -0.1150 -0.1331
 7784W        W18044  13.727   9.569   6.235 -0.0208  0.0401 -0.0117
 7785W        W18045  10.677   5.486   0.065 -0.0017  0.0922 -0.1161
 7786W        W18046  10.959   8.016   6.495  0.2612  0.2721 -0.2402
 7787W        W18047   5.751   0.672   0.436 -0.2071 -0.0944 -0.1831
 7788W        W18048   9.271   0.945   1.474 -0.3090  0.0304 -0.0927
 7789W        W18049   4.142   6.289   0.283 -0.0382  0.0320 -0.0474
 7790W        W18050  14.809  10.482   1.986  0.0634 -0.0836  0.2012
 7791W        W18051   3.151   7.744   8.294 -0.0419  0.1114  0.1774
 7792W        W18052   2.584   9.565   0.238  0.1261 -0.0210  0.3905
 7793W        W18053   5.628   4.521   1.860  0.1457 -0.0415 -0.0376
 7794W        W18054  14.308   6.389   2.041 -0.0837  0.2382 -0.0382
 7795W        W18055  12.700   2.940   6.612  0.0556 -0.2294  0.0764
 7796W        W18056   0.154   8.511   7.433 -0.1968  0.1875  0.2096
 7797W        W18057   1.354   6.404   1.495  0.0181 -0.1440 -0.0461
 7798W        W18058  13.893   5.606   2.297  0.0783  0.0751 -0.1565
 7799W        W18059  14.999   3.495   2.293  0.1780 -0.1698  0.1921
 7800W        W18060   9.444   9.476   7.132  0.0926 -0.3403  0.1120
 7801W        W18061  12.408   6.990   1.250  0.0517 -0.0872 -0.0186
 7802W        W18062   0.228   0.243   6.728 -0.3364 -0.3772  0.2272
 7803W        W18063   6.968   3.175   7.737 -0.2392  0.1376  0.0398
 7804W        W18064  15.468   7.379   0.822  0.0530  0.1175  0.0142
 7805W        W18065  14.828   4.865   1.010  0.0717 -0.1620  0.0387
 7806W        W18066  16.261   1.905   8.358  0.0113 -0.0066  0.2464
 7807W        W18067  15.920   9.947   8.442  0.1856  0.1500 -0.3583
 7808W        W18068   5.113   5.402   8.578  0.2762 -0.1848 -0.3986
 7809W        W18069  16.240   2.175   0.527 -0.0608  0.1160 -0.1268
 7810W        W18070   9.128   1.075   6.603 -0.1958  0.0507  0.1995
 7811W        W18071   7.792   8.840   0.791  0.0665  0.0669  0.0772
 7812W        W18072  15.299   3.378   8.652 -0.2429 -0.2259 -0.1060
 7813W        W18073   8.023  16.127   8.635 -0.1348  0.0606  0.3007
 7814W        W18074  13.942   7.385   6.987 -0.4097  0.2504 -0.2355
 7815W        W18075  16.414   8.517   7.824 -0.1217  0.3189  0.0512
 7816W        W18076   0.273   6.116   6.313 -0.2306 -0.1512 -0.1876
 7817W        W18077  10.350   6.567   6.561 -0.0268  0.0404  0.1331
 7818W        W18078  14.500   1.458   7.308  0.2781 -0.0690  0.1091
 7819W        W18079  15.749   8.113   0.363  0.0902 -0.0451 -0.2853
 7820W        W18080  11.932  11.983   8.310  0.2933 -0.0862  0.0534
 7821W        W18081  11.697   3.286   7.330 -0.3150 -0.0754  0.2939
 7822W        W18082  11.459   5.018   6.945 -0.1100 -0.1031 -0.0845
 7823W        W18083  16.307   6.907   0.810  0.3661  0.3769 -0.1678
 7824W        W18084   9.359   6.176   1.344  0.1425 -0.2501  0.0393
 7825W        W18085   8.352   3.014   2.166  0.0522 -0.2695 -0.2009
 7826W        W18086   8.922   1.242   0.802  0.1453 -0.0636  0.3770
 7827W        W18087  13.711   2.983   0.363 -0.3507  0.1630 -0.3588
 7828W        W18088   1.937   8.967   0.459 -0.0914 -0.4319 -0.0664
 7829W        W18089  12.502   3.954   7.055 -0.0182 -0.0244  0.0482
 7830W        W18090  16.461  10.648   1.395 -0.0771  0.1785  0.0622
 7831W        W18091  13.233   4.268   1.300  0.1378 -0.3826 -0.1095
 7832W        W18092   8.832   7.749   7.933  0.3479 -0.0280 -0.0403
 7833W        W18093  12.229   9.874   1.185 -0.2489 -0.0834  0.0580
 7834W        W18094   7.340   3.482   8.402 -0.2404 -0.1366 -0.2631
 7835W        W18095  12.882   8.222   1.847 -0.1515 -0.2116  0.2571
 7836W        W18096   6.746   0.834   0.111  0.0271 -0.0125 -0.4354
 7837W        W18097   6.428   1.657   0.838  0.0665 -0.1601  0.3525
 7838W        W18098  12.919   2.855   8.368  0.1088  0.0191  0.0637
 7839W        W18099  11.624  11.100   8.598 -0.0297 -0.2838 -0.0247
 7840W        W18100  11.247   3.224   6.580 -0.0089  0.1031  0.0479
 7841W        W18101   0.589  12.649   1.443  0.0315 -0.1594  0.0841
 7842W        W18102   7.965  12.870   7.155 -0.3110 -0.2142  0.3710
 7843W        W18103   6.127   1.283   1.071  0.0321 -0.2881 -0.2296
 7844W        W18104  15.579  16.020   6.930 -0.2175 -0.0134  0.0313
 7845W        W18105  14.674   8.777   1.822  0.0005 -0.0936 -0.1119
 7846W        W18106   6.880   6.436   6.732 -0.0027 -0.2050  0.0448
 7847W        W18107  13.618   0.864   7.457 -0.2474  0.2666  0.2638
 7848W        W18108   9.823   3.263   6.335 -0.2069 -0.0673  0.3299
 7849W        W18109  15.784   0.663   1.711  0.1579  0.0711 -0.1072
 7850W        W18110  11.636   5.206   6.162 -0.1835 -0.1695 -0.0637
 7851W        W18111  13.030   1.930   2.091  0.1132  0.3043  0.2198
 7852W        W18112  13.251   5.520   0.656  0.0744  0.0240  0.1047
 7853W        W18113   2.754   3.779   8.051  0.2266  0.2909  0.1615
 7854W        W18114   8.831   7.766   6.580  0.0074 -0.0230 -0.3599
 7855W        W18115   3.896  11.514   7.891  0.0402  0.0201 -0.1155
 7856W        W18116  11.164   4.111   0.504  0.0373 -0.1382  0.0799
 7857W        W18117  12.052   6.455   1.924 -0.3864  0.2047 -0.2141
 7858W        W18118  11.697   2.195   6.610  0.2079  0.3142 -0.1314
 7859W        W18119   2.073  14.428   0.168 -0.2227 -0.2189 -0.1589
 7860W        W18120  16.183   4.184   6.953  0.2487  0.0683 -0.4256
 7861W        W18121  10.877   5.017   8.636 -0.0164 -0.0005 -0.0922
 7862W        W18122  14.746   5.749   7.631  0.1118 -0.0202 -0.2166
 7863W        W18123   8.836   4.040   1.458  0.0671  0.4812  0.0448
 7864W        W18124  10.137  12.537   1.510  0.0534  0.2624 -0.1805
 7865W        W18125  14.772   8.922   7.238 -0.2266  0.0284 -0.1661
 7866W        W18126  10.355   4.911   1.410  0.0717 -0.1775 -0.1429
 7867W        W18127  11.648  10.173   8.237 -0.0761  0.3356 -0.0882
 7868W        W18128  12.100   4.840   6.774 -0.0231  0.2165 -0.1815
 7869W        W18129   9.799   3.347   2.111 -0.0504 -0.1468 -0.0408
 7870W        W18130  11.711  10.465   6.147 -0.1699  0.4035 -0.0421
 7871W        W18131   9.204   2.754   0.059  0.4430  0.0641  0.0590
 7872W        W18132  10.156   8.029   7.862  0.0063 -0.1841 -0.3101
 7873W        W18133  13.480   7.967   1.257 -0.2741  0.2816 -0.1844
 7874W        W18134  11.539  12.241   8.477  0.2214 -0.1243  0.0256
 7875W        W18135   8.878   4.024   6.813 -0.3143  0.1371  0.3653
 7876W        W18136   6.758   4.156   6.613  0.1146 -0.0934  0.1041
 7877W        W18137   8.482   9.382   0.788 -0.0898 -0.0321 -0.0305
 7878W        W18138  13.061  13.132   8.459  0.1156  0.0042 -0.0605
 7879W        W18139  10.695   7.633   0.213 -0.0176  0.1355 -0.0336
 7880W        W18140  10.410   6.726   8.057  0.1040 -0.1003  0.0871
 7881W        W18141   1.874   8.417   1.436 -0.1844  0.0828  0.2191
 7882W        W18142  13.869   6.467   0.717  0.0860  0.1475  0.0179
 7883W        W18143  12.721  16.211   7.666 -0.0120 -0.1964 -0.1972
 7884W        W18144   2.505  13.779   1.407 -0.3978 -0.2346 -0.1088
 7885W        W18145  12.850   1.814   0.358 -0.0257  0.2596 -0.1236
 7886W        W18146  11.990   7.513   7.419 -0.1336  0.2174 -0.1590
 7887W        W18147  15.633   7.549   1.228 -0.1666  0.1519 -0.0267
 7888W        W18148  15.410   5.258   0.927  0.1754 -0.0085 -0.1699
 7889W        W18149  11.134   8.084   1.628  0.0611 -0.0547 -0.0107
 7890W        W18150  10.865   8.708   7.691 -0.3902  0.2119  0.3192
 7891W        W18151   1.961   0.400   0.010  0.3226  0.2077 -0.2683
 7892W        W18152  13.764   2.870   8.241 -0.1639 -0.0365  0.1355
 7893W        W18153  11.185   8.359   1.140 -0.1613 -0.0377 -0.0221
 7894W        W18154  11.622   6.257   0.406 -0.3472  0.0508 -0.1917
 7895W        W18155  12.897   5.822   8.084  0.1846  0.1184  0.1883
 7896W        W18156  14.267  13.955   0.124  0.3826 -0.0470 -0.1106
 7897W        W18157  14.961   5.437   0.903  0.0047 -0.0549 -0.0639
 7898W        W18158  12.264   3.639   6.706 -0.0739  0.1686  0.1364
 7899W        W18159   1.910   5.400   6.885  0.5187  0.2503 -0.1328
 7900W        W18160  12.157   1.386   7.230 -0.0672  0.1168  0.0350
 7901W        W18161  11.320  16.505   0.118 -0.0587  0.0282 -0.2049
 7902W        W18162  11.624   5.429   2.703 -0.0377 -0.2481 -0.0347
 7903W        W18163  14.421   7.531   1.236  0.1014  0.2858 -0.4181
 7904W        W18164  12.060   9.573   7.443  0.1525 -0.0166  0.2124
 7905W        W18165   9.785   2.535   1.690  0.2427  0.0155 -0.3832
 7906W        W18166  13.269   7.544   1.541  0.0177  0.2810  0.0480
 7907W        W18167  15.580   6.318   8.121  0.1290 -0.0447 -0.2456
 7908W        W18168  14.785  10.983   7.009 -0.2117  0.0143 -0.0665
 7909W        W18169   9.401   7.673   7.339 -0.2293  0.1322 -0.1511
 7910W        W18170  13.836   1.587   7.659  0.2558  0.1092 -0.0075
 7911W        W18171   8.309  10.617   7.827 -0.0681 -0.3381  0.0186
 7912W        W18172  15.868   8.825   7.088 -0.0733 -0.3340 -0.0915
 7913W        W18173  13.979   5.175   0.129  0.2572  0.0835  0.2124
 7914W        W18174  11.017   4.417   8.431 -0.1221 -0.0491  0.1636
 7915W        W18175  11.322   4.454   6.527 -0.0942  0.0170  0.0376
 7916W        W18176  14.371   3.534   8.546 -0.0326 -0.4571 -0.2670
 7917W        W18177  16.444  10.014   1.814  0.1607 -0.0072 -0.0511
 7918W        W18178   1.437  11.420   1.261 -0.0811 -0.1526 -0.3419
 7919W        W18179  11.740   7.113   7.587  0.2633  0.0410 -0.1390
 7920W        W18180   2.338   7.512   8.179 -0.1180  0.0205  0.1097
 7921W        W18181  10.007   6.236   6.745  0.0751  0.0375  0.1050
 7922W        W18182   0.548   4.439   0.954  0.0976 -0.2134 -0.1909
 7923W        W18183  10.803   6.650   1.678 -0.1022  0.0719  0.0443
 7924W        W18184  12.289   3.886   1.342 -0.1928  0.1539  0.2527
 7925W        W18185   4.754   7.453   2.213 -0.0310 -0.1756  0.1117
 7926W        W18186  13.430   6.479   0.516 -0.1328 -0.0311 -0.0703
 7927W        W18187   8.115   6.348   1.631  0.0802 -0.1613 -0.1043
 7928W        W18188  12.774   3.893   6.573 -0.0783  0.1385 -0.0002
 7929W        W18189   9.792   5.915   0.535  0.0122  0.2111  0.0716
 7930W        W18190   2.351   0.495   1.105 -0.1241 -0.2734  0.0176
 7931W        W18191  14.180   5.003   1.610 -0.2723 -0.0744  0.3063
 7932W        W18192  13.249   9.894   0.099 -0.0048 -0.3434  0.1209
 7933W        W18193  10.223   5.208   1.797 -0.5060 -0.0865  0.0501
 7934W        W18194  11.160   5.218   1.990 -0.0546 -0.3685  0.1602
 7935W        W18195  11.318   7.741   1.952 -0.2774 -0.1877  0.1798
 7936W        W18196  11.988   8.534   0.204  0.1387 -0.1597  0.0282
 7937W        W18197   1.495   7.342   0.058  0.0779 -0.2980  0.4278
 7938W        W18198  15.476   8.598   6.637  0.1013  0.1088 -0.0062
 7939W        W18199  10.707   7.182   7.824 -0.1339  0.1763 -0.0293
 7940W        W18200   3.492   9.682   2.038 -0.0887 -0.2010  0.0582
 7941W        W18201  10.732   9.258   1.107  0.2120  0.5143  0.0258
 7942W        W18202  12.964   2.136   1.669 -0.0071 -0.1808 -0.1477
 7943W        W18203  10.818   5.966   0.023  0.0433 -0.2670  0.0626
 7944W        W18204  11.666   5.591   8.471 -0.1268  0.2178  0.0878
 7945W        W18205  13.055   4.042   1.756 -0.0674  0.2238  0.1774
 7946W        W18206  13.219   5.893   6.065  0.1696 -0.2460 -0.0393
 7947W        W18207  16.336   6.461   0.604 -0.0031 -0.3593 -0.3197
 7948W        W18208  12.760   7.407   5.660 -0.2199  0.1335 -0.0396
 7949W        W18209   0.264   7.038   1.141 -0.0932  0.0860  0.3566
 7950W        W18210  12.976   5.321   6.733  0.1240 -0.2494  0.0796
 7951W        W18211  11.002   7.127   0.965 -0.3564  0.0911  0.3067
 7952W        W18212   1.513   2.190   6.749  0.5254  0.3660  0.2088
 7953W        W18213  12.292   8.894   0.013  0.1182 -0.2720 -0.0876
 7954W        W18214   4.056  16.454   8.585  0.0108 -0.3870  0.0884
 7955W        W18215   9.812  11.931   1.097  0.3054  0.0635 -0.1760
 7956W        W18216  14.929   1.430   7.031 -0.2816  0.1929  0.0104
 7957W        W18217  14.227   7.063   2.501 -0.0853 -0.3414 -0.0527
 7958W        W18218  12.955   2.794   1.808  0.0135 -0.0767  0.1255
 7959W        W18219   1.135   7.109   0.399  0.0283 -0.3305 -0.0834
 7960W        W18220  11.039   8.150   2.829 -0.0271 -0.2055  0.0804
 7961W        W18221   9.642   4.768   2.371  0.0018  0.1207 -0.0781
 7962W        W18222  10.783   4.637   2.378  0.0610  0.0654 -0.0488
 7963W        W18223  14.128   7.814   2.056  0.0047  0.2170 -0.0903
 7964W        W18224  14.853  12.809   8.109 -0.0275  0.3035 -0.0609
 7965W        W18225   2.560  10.367   6.629 -0.1442  0.0879  0.0119
 7966W        W18226  12.357   9.712   8.180 -0.2235  0.0471  0.0436
 7967W        W18227  15.793   9.410   8.395  0.1660 -0.0288 -0.0897
 7968W        W18228  14.255   8.750   8.118  0.2976 -0.0970 -0.2503
 7969W        W18229  14.073   8.962   8.607 -0.1761  0.1654  0.2544
 7970W        W18230  13.679   3.420   0.609  0.2854 -0.1384 -0.0931
 7971W        W18231   8.673   1.469   1.825 -0.0024 -0.1735  0.0008
 7972W        W18232   9.359   1.419   8.069 -0.2612  0.1480  0.1416
 7973W        W18233  15.247   3.873   1.853  0.1124 -0.0231  0.0336
 7974W        W18234   2.081   9.145   8.494 -0.0661 -0.0828  0.0501
 7975W        W18235   9.309   1.788   0.496 -0.1615 -0.2460  0.2349
 7976W        W18236   1.859   5.083   7.809  0.1939 -0.2034 -0.3840
 7977W        W18237   3.107  16.141   8.137 -0.1138  0.0453  0.2179
 7978W        W18238   3.016   4.630   0.476  0.0973  0.1364  0.0554
 7979W        W18239   0.035   8.362   8.629  0.2380  0.1559  0.1487
 7980W        W18240  16.414   2.547   0.218  0.0878 -0.0308 -0.0456
 7981W        W18241  15.567   6.933   0.559 -0.1152 -0.3268  0.0243
 7982W        W18242   1.569   6.222   6.898  0.2300 -0.0370  0.2445
 7983W        W18243   5.776   3.138   8.384 -0.3034  0.1632 -0.2205
 7984W        W18244  11.962   5.196   8.346 -0.2365  0.2179 -0.1200
 7985W        W18245  14.467   5.213   1.183 -0.0991  0.1326  0.3064
 7986W        W18246   3.294  16.334   1.672 -0.2401 -0.3574 -0.2542
 7987W        W18247  16.077  11.658   7.094 -0.3516 -0.0356 -0.1003
 7988W        W18248  10.952   2.980   1.216 -0.1618  0.0445 -0.0689
 7989W        W18249  12.842   7.654   8.293  0.1152  0.1314 -0.0634
 7990W        W18250   6.518   2.761   7.344  0.1306  0.1550  0.1246
 7991W        W18251  12.894   8.410   7.097 -0.1400 -0.0497 -0.0626
 7992W        W18252  16.143  11.889   7.821 -0.2034 -0.3189  0.2144
 7993W        W18253   1.732   1.317   7.061 -0.1427 -0.4496 -0.2514
 7994W        W18254   1.830   6.398   8.320  0.0769  0.0091  0.2953
 7995W        W18255   3.050   2.128   7.361 -0.3772 -0.0281  0.1319
 7996W        W18256   2.378   2.533   6.881 -0.2108  0.4721  0.0193
 7997W        W18257   4.304   4.553   0.347 -0.1157  0.1468 -0.4065
 7998W        W18258   1.768  10.945   1.830 -0.2056 -0.2180  0.1642
 7999W        W18259  14.670  10.689   1.472  0.0407 -0.2163 -0.0671
 8000W        W18260   9.397  10.217   1.316  0.2800  0.0126  0.1455
 8001W        W18261  11.376   5.908   0.055 -0.1571 -0.3342 -0.3570
 8002W        W18262  13.546   1.146   2.789 -0.2575  0.1478  0.0159
 8003W        W18263   7.555   4.172   1.691 -0.1685 -0.2583 -0.1703
 8004W        W18264  13.377   3.218   6.902  0.0755  0.2094  0.0612
 8005W        W18265   0.708   4.596   8.290  0.1775  0.1322 -0.2445
 8006W        W18266   2.408   6.623   2.388  0.3122 -0.2263  0.5184
 8007W        W18267   1.566   6.858   1.580  0.0118 -0.1839  0.3294
 8008W        W18268   2.391   7.538   6.774 -0.2881 -0.3198 -0.4559
 8009W        W18269   1.825   6.487   1.425 -0.1915  0.3142 -0.0004
 8010W        W18270  11.860   2.552   8.587  0.1521  0.0364  0.1445
 8011W        W18271  16.087   0.281   5.976 -0.3489 -0.0556 -0.3005
 8012W        W18272  12.844   1.828   7.900  0.4887 -0.2132 -0.0149
 8013W        W18273   0.467   9.859   0.023  0.3382 -0.0799  0.1018
 8014W        W18274  14.908   6.489   7.306 -0.2740 -0.2920  0.1313
 8015W        W18275  10.073  10.620   1.972 -0.0508  0.0440 -0.1290
 8016W        W18276  14.476   3.070   8.260  0.0481 -0.0252 -0.1393
 8017W        W18277   6.420   3.009   1.476 -0.0480  0.1842  0.3465
 8018W        W18278   0.116   3.852   2.575  0.1019  0.0012  0.1672
 8019W        W18279   2.946   0.103   7.125  0.2474 -0.1342  0.2698
 8020W        W18280  13.729   9.319   1.743 -0.0641  0.4855  0.0165
 8021W        W18281   3.243   4.977   0.909  0.1809  0.0210 -0.1663
 8022W        W18282   0.924   5.598   1.696  0.1297 -0.1048 -0.3732
 8023W        W18283   2.220   6.037   0.617  0.1368  0.0909  0.1056
 8024W        W18284   2.455   4.235   6.618 -0.0967 -0.2566 -0.1052
 8025W        W18285   0.771  14.088   7.496  0.0708  0.1402 -0.3206
 8026W        W18286  15.823   5.180   7.965  0.2472 -0.1217  0.1177
 8027W        W18287  15.433   5.014   8.390  0.2422 -0.3136  0.1236
 8028W        W18288  10.055  11.069   1.785 -0.1651 -0.1407  0.0932
 8029W        W18289  14.342  16.382   2.553 -0.2272  0.0870 -0.3981
 8030W        W18290   1.477  12.747   8.248 -0.0169 -0.1309  0.1497
 8031W        W18291   0.400   5.647   2.566  0.1566  0.2505 -0.1328
 8032W        W18292  16.361   7.079   8.222  0.3560 -0.2176 -0.0061
 8033W        W18293  13.229  11.243   7.404  0.0920  0.1306  0.0965
 8034W        W18294  13.116   5.972   0.605  0.3486 -0.1031  0.0174
 8035W        W18295  13.014   6.589   7.596  0.1923  0.3041 -0.0067
 8036W        W18296  16.404   7.147   0.323 -0.0067  0.0246  0.0432
 8037W        W18297   2.884   4.333   7.507 -0.2243 -0.1839  0.0739
 8038W        W18298   4.707   7.282   0.355 -0.0585 -0.1228 -0.0573
 8039W        W18299   7.982   3.050   1.816  0.4400  0.0036  0.1889
 8040W        W18300  16.130   5.731   5.805  0.1527 -0.3268  0.3050
 8041W        W18301  14.710   3.651   1.838  0.0469 -0.0470  0.2909
 8042W        W18302  12.765   3.304   8.296  0.2677 -0.1609  0.0412
 8043W        W18303  15.232   5.654   7.579  0.1140 -0.2402  0.1095
 8044W        W18304   1.143   4.573   1.237  0.0886 -0.1077  0.0105
 8045W        W18305   0.103  16.427   6.978 -0.4030 -0.2656 -0.1695
 8046W        W18306   1.754   7.424   1.320 -0.1178 -0.1786 -0.1851
 8047W        W18307   9.038   1.009   8.639 -0.0026  0.3161 -0.1987
 8048W        W18308   2.032   5.055   1.208 -0.3159  0.0148 -0.4072
 8049W        W18309  12.460   8.261   0.430  0.1129  0.0493 -0.0206
 8050W        W18310  12.707   9.172   6.637 -0.0861 -0.2278 -0.0795
 8051W        W18311  16.522   8.984   8.576 -0.1736 -0.2584 -0.3469
 8052W        W18312  13.654  12.948   7.654 -0.1353  0.0644  0.1337
 8053W        W18313   0.592   8.522   1.784 -0.1956 -0.2750 -0.0111
 8054W        W18314  14.491  13.259   1.698 -0.0236  0.2707  0.0765
 8055W        W18315   3.749  11.180   3.165  0.0512 -0.1882 -0.0255
 8056W        W18316   1.709   5.937   0.609  0.0621 -0.1938  0.0587
 8057W        W18317   9.918   9.521   6.936  0.0629 -0.2118 -0.1485
 8058W        W18318   0.586  15.570   0.029 -0.3958  0.3159 -0.1007
 8059W        W18319  13.477   9.607   0.920  0.0819  0.2908  0.3319
 8060W        W18320   1.689   1.948   1.542 -0.0378  0.2610  0.0581
 8061W        W18321  14.615   4.176   0.563 -0.0486 -0.0113  0.0446
 8062W        W18322  12.432  11.930   7.484  0.0650 -0.2545  0.2927
 8063W        W18323  14.119   5.606   1.038 -0.1374  0.3259 -0.2041
 8064W        W18324  15.656   7.946   7.789 -0.1896 -0.0190  0.0321
 8065W        W18325  11.816   4.341   8.398  0.0990 -0.2471 -0.0811
 8066W        W18326  12.876   7.257   1.233  0.0173 -0.1064 -0.1556
 8067W        W18327  14.947   8.491   7.352  0.0555 -0.1414  0.3947
 8068W        W18328   2.070   4.409   6.991  0.2081 -0.0487  0.2883
 8069W        W18329  11.940   6.987   1.025 -0.4111 -0.0241  0.1278
 8070W        W18330   1.207   0.657   1.900 -0.1772 -0.1687 -0.0633
 8071W        W18331  15.628   3.774   8.575 -0.0218  0.3589 -0.0600
 8072W        W18332  16.420   4.879   1.783  0.1507 -0.3293 -0.1359
 8073W        W18333   4.522  14.299   6.336  0.1010  0.2295 -0.0950
 8074W        W18334  12.532   2.206   2.460  0.0032 -0.2121 -0.0352
 8075W        W18335  10.123   8.111   6.845 -0.0018 -0.1721  0.3795
 8076W        W18336   4.639  15.298   6.107  0.0999  0.2455 -0.1157
 8077W        W18337  15.910   4.947   0.041 -0.1713  0.2127 -0.1593
 8078W        W18338  15.474  12.211   0.900  0.1112 -0.4813  0.0772
 8079W        W18339  15.009   3.920   0.401  0.2348 -0.3612 -0.3528
 8080W        W18340   3.507   4.582   8.210 -0.0468 -0.1562 -0.1148
 8081W        W18341   1.410   4.276   0.336  0.0462  0.1079  0.2207
 8082W        W18342  16.364   4.301   0.475  0.1058  0.4007  0.1280
 8083W        W18343  16.106   7.273   1.308 -0.1475  0.1475 -0.1579
 8084W        W18344  12.362   2.386   8.571  0.0116 -0.1396  0.0018
 8085W        W18345  13.110  11.827   0.631 -0.0319  0.1594  0.1706
 8086W        W18346  13.423  12.683   0.725 -0.1889 -0.0660  0.1186
 8087W        W18347   2.018   4.878   1.672  0.1154 -0.1292 -0.0931
 8088W        W18348   5.980   9.611   8.142 -0.0456 -0.3454  0.1117
 8089W        W18349  10.062   6.721   7.643 -0.0813 -0.0607 -0.1124
 8090W        W18350   2.445   2.172   6.018 -0.2597 -0.1659 -0.2463
 8091W        W18351  15.736   7.292   6.508 -0.0795  0.2259 -0.2124
 8092W        W18352  15.245   2.908   1.625 -0.1387  0.0714  0.0685
 8093W        W18353   0.114   0.661   7.546 -0.1794  0.1575 -0.0414
 8094W        W18354  12.285   7.165   7.639 -0.1337 -0.0450 -0.0829
 8095W        W18355   1.003   3.897   6.722  0.0090  0.1097 -0.0066
 8096W        W18356  15.370   8.733   7.205  0.0330 -0.3648 -0.0789
 8097W        W18357   2.176  15.813   7.819 -0.1932  0.1056 -0.2703
 8098W        W18358   7.989   4.236   1.494 -0.2409 -0.2196 -0.0953
 8099W        W18359  12.183   9.231   1.378  0.0249  0.1400  0.0284
 8100W        W18360   1.977   3.542   1.891 -0.1092  0.2769  0.6178
 8101W        W18361  14.118  12.568   7.647 -0.0299  0.1111 -0.1596
 8102W        W18362   5.564   5.148   0.359 -0.0308 -0.2587 -0.2632
 8103W        W18363   1.640   0.061   6.646  0.0207 -0.0831  0.1421
 8104W        W18364   1.763   8.745   8.061 -0.2723  0.1169 -0.0709
 8105W        W18365   0.747   3.925   1.821  0.1564 -0.1728  0.2054
 8106W        W18366   3.794   5.621   6.880 -0.0036  0.0954  0.0184
 8107W        W18367   7.051   9.849   6.998 -0.1175  0.1451  0.3119
 8108W        W18368   6.686   8.069   0.634  0.1550 -0.2232  0.0391
 8109W        W18369   6.624   1.361   0.431 -0.0233 -0.0995 -0.1542
 8110W        W18370  11.716  11.539   1.459 -0.0874  0.3688 -0.0958
 8111W        W18371   2.449   8.265   7.814  0.1346 -0.0647  0.0241
 8112W        W18372   2.853   8.397   1.687 -0.2932  0.0866  0.1212
 8113W        W18373  15.504  11.509   7.226 -0.1400 -0.0385 -0.2552
 8114W        W18374   3.230   2.976   0.304  0.3205 -0.0265  0.1544
 8115W        W18375   1.827  12.649   1.437  0.2364 -0.1362  0.0247
 8116W        W18376  15.212   4.019   8.655 -0.0847  0.1904  0.1501
 8117W        W18377   6.623   4.477   7.149  0.2233 -0.2233 -0.1556
 8118W        W18378  15.761  10.274   8.035 -0.0775 -0.0340 -0.0983
 8119W        W18379   5.859   7.039   8.299  0.0365 -0.0615 -0.1295
 8120W        W18380   3.029  10.934   1.257 -0.0037 -0.1693  0.0290
 8121W        W18381  13.272  11.116   7.912 -0.4831  0.0106  0.1026
 8122W        W18382   6.648   7.744   1.111  0.2128  0.1540 -0.3019
 8123W        W18383   2.162   0.615   8.233 -0.0575 -0.0354 -0.0802
 8124W        W18384  12.712  11.200   0.224  0.0997 -0.1072 -0.1570
 8125W        W18385   2.713   7.400   0.837  0.7317 -0.0413 -0.1627
 8126W        W18386   2.943   9.134   7.239 -0.1736 -0.1589 -0.0855
 8127W        W18387   4.717   3.222   6.751 -0.1152 -0.2916  0.3530
 8128W        W18388   8.564   9.279   7.863  0.1842  0.1247  0.0625
 8129W        W18389   8.086   5.058   1.807 -0.0668  0.0842 -0.0903
 8130W        W18390  13.148  14.642   8.474  0.0273 -0.2485 -0.2502
 8131W        W18391  12.992   7.389   6.968  0.0389 -0.1932 -0.2124
 8132W        W18392   5.188   7.384   1.359 -0.2144  0.1482 -0.2933
 8133W        W18393   5.535  13.541   1.853  0.1459  0.0244  0.4660
 8134W        W18394   3.385  10.023   2.400 -0.4323 -0.1396 -0.1142
 8135W        W18395   0.961   5.708   0.245  0.1455  0.0002 -0.0049
 8136W        W18396  10.813   7.992   6.972  0.2217  0.1531  0.2341
 8137W        W18397   1.169   4.119   0.896  0.0980 -0.0394  0.0476
 8138W        W18398   3.683   6.699   1.725 -0.0451  0.4499 -0.1696
 8139W        W18399   1.184   3.841   7.243  0.0066 -0.1489 -0.0599
 8140W        W18400   7.165   4.390   0.776 -0.0016  0.1287 -0.1384
 8141W        W18401  13.551  10.951   6.650  0.1877 -0.1147 -0.0047
 8142W        W18402  14.112   2.825   7.860  0.0813  0.0484  0.1970
 8143W        W18403   5.430  11.524   1.047  0.1005  0.1862  0.0315
 8144W        W18404   1.754  10.211   6.948 -0.2730 -0.2663  0.0835
 8145W        W18405   1.356   4.590   0.713 -0.2429 -0.2101  0.1532
 8146W        W18406   0.893   5.697   7.587  0.1353  0.2683  0.0374
 8147W        W18407   3.335   6.847   1.417  0.3319  0.2300  0.0943
 8148W        W18408  16.030   8.183   0.779  0.0539  0.4542  0.1862
 8149W        W18409  14.870  10.370   6.469  0.2331 -0.3884 -0.0081
 8150W        W18410   5.025   7.010   0.820  0.2472  0.0190  0.1118
 8151W        W18411   1.481  11.809   2.030 -0.0228 -0.0223 -0.0031
 8152W        W18412   2.221   9.510   0.987 -0.0849 -0.1173  0.4270
 8153W        W18413   7.857   5.645   1.096  0.0021 -0.0989 -0.1017
 8154W        W18414  15.468  10.109   8.405 -0.2903  0.0018  0.0856
 8155W        W18415  15.910   4.278   0.688  0.1448 -0.1445 -0.1377
 8156W        W18416   7.721   6.500   0.712  0.2218 -0.1811 -0.3057
 8157W        W18417  14.312   2.145   8.522  0.0515  0.1322  0.2553
 8158W        W18418   2.790   7.010   2.236  0.2619  0.0122 -0.1189
 8159W        W18419   4.648  13.587   2.745 -0.1329 -0.1830 -0.2294
 8160W        W18420   3.358  13.607   7.591  0.2737 -0.2763  0.3419
 8161W        W18421   5.410  10.777   6.865  0.0479  0.1085 -0.1551
 8162W        W18422  15.840  14.807   8.476  0.3168  0.1043 -0.2505
 8163W        W18423   5.905  14.314   7.120  0.0350  0.2610 -0.1720
 8164W        W18424   4.643  13.438   1.454 -0.0603  0.4719  0.0209
 8165W        W18425   1.319   5.784   1.452 -0.0821 -0.1714  0.0109
 8166W        W18426   6.105   8.731   1.866  0.0362  0.0240 -0.0995
 8167W        W18427   0.620  11.987   8.175  0.2937  0.4288 -0.2493
 8168W        W18428   5.103  12.119   7.570  0.2428 -0.1487  0.1074
 8169W        W18429  14.782   2.424   0.800  0.1214  0.0675 -0.0778
 8170W        W18430   2.456   8.049   6.888 -0.1265  0.1390  0.1278
 8171W        W18431   6.963   2.206   1.538  0.0197  0.1473 -0.2052
 8172W        W18432   5.874   6.334   2.138  0.1689 -0.1371  0.1063
 8173W        W18433  12.874  10.198   0.433 -0.0324  0.1443  0.2678
 8174W        W18434  15.588  14.676   0.362 -0.1265  0.3898 -0.1890
 8175W        W18435   8.426   6.136   7.632 -0.0298 -0.1745 -0.1268
 8176W        W18436   7.779   4.867   0.280 -0.1325  0.0109 -0.0136
 8177W        W18437   4.492  10.589   1.567  0.1963 -0.2434  0.0721
 8178W        W18438   5.086   3.663   0.965  0.0700 -0.2477 -0.0764
 8179W        W18439  13.381  13.748   8.055 -0.0846  0.0656 -0.1509
 8180W        W18440   0.585  10.152   0.634  0.1871 -0.1950 -0.2554
 8181W        W18441   5.101   6.440   6.699  0.0739  0.1328  0.1328
 8182W        W18442   2.428   3.806   0.864  0.0904 -0.0157 -0.1445
 8183W        W18443   8.935   8.782   0.573 -0.0877 -0.1372 -0.2674
 8184W        W18444  13.731   7.101   8.138 -0.0533 -0.1192  0.2451
 8185W        W18445   1.447   6.640   1.054  0.0216  0.1130 -0.2608
 8186W        W18446  12.216   9.042   0.897 -0.0559 -0.0696  0.0868
 8187W        W18447   2.089   3.302   7.941  0.1112 -0.2121  0.1733
 8188W        W18448   2.440  10.633   0.351  0.1283 -0.1426  0.2478
 8189W        W18449   5.275   9.044   1.218  0.1494 -0.0069  0.1286
 8190W        W18450   3.063   5.075   0.132 -0.0213  0.0225  0.2313
 8191W        W18451  11.087  10.574   1.268  0.1090  0.1475 -0.0209
 8192W        W18452   0.497  11.897   1.608  0.1514  0.0328 -0.1760
 8193W        W18453   0.012  10.488   1.856 -0.0354 -0.0295 -0.3027
 8194W        W18454   4.812  10.252   0.336 -0.1293  0.1161  0.1585
 8195W        W18455  16.356   7.060   6.613 -0.0338 -0.0712 -0.1084
 8196W        W18456   2.546   3.349   7.771  0.4213  0.1850 -0.0642
 8197W        W18457   4.278  10.018   1.547  0.0335 -0.2422  0.0871
 8198W        W18458   2.216  12.471   1.134 -0.0554  0.1586 -0.1816
 8199W        W18459   2.611   9.492   1.646  0.1227  0.1606 -0.0727
 8200W        W18460  13.480   8.353   8.102 -0.1814 -0.0125  0.1600
 8201W        W18461  11.982   2.837   1.915  0.0124 -0.2787 -0.1835
 8202W        W18462  11.145   6.248   1.399 -0.0599  0.1767  0.0116
 8203W        W18463  12.113   9.551   0.742  0.0635  0.1794  0.2231
 8204W        W18464  12.213   4.935   6.284  0.0041  0.3253  0.4275
 8205W        W18465   6.600   0.235   7.066 -0.2544  0.0975  0.1382
 8206W        W18466  13.367   9.364   7.474  0.0369  0.0313 -0.0982
 8207W        W18467   0.868   8.865   0.248 -0.0250  0.0065  0.2106
 8208W        W18468  15.721   2.266   8.280  0.3510  0.0081 -0.0359
 8209W        W18469  14.110   3.258   7.539 -0.3006 -0.0658  0.1060
 8210W        W18470   8.974   7.923   7.429  0.4525  0.0622  0.0081
 8211W        W18471   0.461   6.194   1.314 -0.2096 -0.1218  0.0507
 8212W        W18472  14.448   6.667   7.416  0.0921  0.3025 -0.1314
 8213W        W18473   4.187   2.698   6.839  0.2614 -0.2731  0.0563
 8214W        W18474   8.552   6.834   8.268  0.1753  0.0309  0.0483
 8215W        W18475  16.304   9.734   8.162 -0.2195 -0.2154 -0.2961
 8216W        W18476   4.564   6.527   8.373  0.0504  0.0731  0.1371
 8217W        W18477  12.467   9.255   7.646 -0.0383 -0.0058  0.0568
 8218W        W18478  16.582   5.402   6.527  0.1591 -0.0257  0.0560
 8219W        W18479   5.027   0.438   1.288  0.1437  0.0264  0.0059
 8220W        W18480   2.445  13.466   1.920  0.1128 -0.0220  0.1685
 8221W        W18481  14.641   9.044   8.004  0.0460  0.2100 -0.3171
 8222W        W18482   0.163   7.784   6.704 -0.0775  0.3302  0.2133
 8223W        W18483   0.203  12.149   0.566 -0.0511 -0.0525  0.1245
 8224W        W18484   7.485   7.726   7.907 -0.0614  0.0257 -0.0156
 8225W        W18485  15.485  15.601   8.364 -0.2748 -0.2817  0.3233
 8226W        W18486   4.593   9.768   7.341 -0.1011  0.4086 -0.0237
 8227W        W18487   6.579   7.679   7.902 -0.3847  0.2117  0.1920
 8228W        W18488   6.062   4.210   1.814 -0.0108 -0.0964  0.1144
 8229W        W18489  16.198   2.101   1.064 -0.0123 -0.0672  0.1263
 8230W        W18490   4.778   4.730   2.359 -0.0871 -0.1774  0.0156
 8231W        W18491  14.969  10.387   5.903  0.0486 -0.0442 -0.0699
 8232W        W18492   8.243   4.214   8.023 -0.2244 -0.0774 -0.1031
 8233W        W18493   1.564   8.173   0.188 -0.1012  0.2211 -0.0738
 8234W        W18494   3.152   9.617   1.596  0.0499  0.2127 -0.1309
 8235W        W18495  16.565   4.513   7.199  0.1201  0.2161  0.1583
 8236W        W18496   1.691   4.919   8.367  0.1645 -0.0118  0.1755
 8237W        W18497  15.236   9.233   7.444  0.3368  0.1897 -0.0170
 8238W        W18498   4.346  10.164   7.196 -0.0590  0.1085 -0.1210
 8239W        W18499  11.676  11.463   7.012 -0.3033  0.0228 -0.0711
 8240W        W18500  12.327   3.406   0.391  0.2597 -0.1878 -0.0979
 8241W        W18501   1.369   5.242   6.828  0.2850 -0.2790 -0.1779
 8242W        W18502   1.137  15.376   2.721 -0.1417 -0.0507 -0.0314
 8243W        W18503   3.846   9.922   0.104  0.1204 -0.1515  0.1372
 8244W        W18504   1.338   2.579   0.384 -0.0980  0.0152 -0.0820
 8245W        W18505   3.966   5.656   2.496 -0.2159 -0.1135  0.0821
 8246W        W18506  11.044  10.842   1.667  0.2979  0.0137 -0.2384
 8247W        W18507  16.554   5.903   0.593  0.3728  0.1007 -0.2950
 8248W        W18508   4.167   5.043   1.694  0.0713  0.0138  0.4116
 8249W        W18509  15.050  10.333   8.287  0.1772  0.0046  0.0562
 8250W        W18510   2.784   8.324   6.570  0.0008 -0.1371  0.0834
 8251W        W18511   1.702  12.340   1.812  0.0899  0.0766  0.0035
 8252W        W18512   1.069  11.129   1.030  0.0421 -0.0642  0.1188
 8253W        W18513  15.239   6.130   8.485  0.1679  0.1884  0.1994
 8254W        W18514   0.080   2.008   0.709  0.0388  0.0041 -0.1934
 8255W        W18515  14.167   7.171   7.382  0.0863  0.3659  0.0189
 8256W        W18516   1.183   9.353   0.122 -0.0223 -0.1192 -0.3717
 8257W        W18517   4.065   7.204   8.589 -0.2676  0.1824 -0.0844
 8258W        W18518   0.454   2.947   1.588 -0.2163  0.0592 -0.2970
 8259W        W18519   6.093   2.688   8.642 -0.0965 -0.1748  0.1487
 8260W        W18520  15.350  12.558   6.673  0.0999  0.1801  0.3223
 8261W        W18521   0.429   8.325   7.873 -0.3045  0.0229  0.0723
 8262W        W18522   5.113   9.511   1.427 -0.0674 -0.0121 -0.0309
 8263W        W18523   4.182   8.265   6.106 -0.2307  0.1920  0.1138
 8264W        W18524   5.663   5.186   6.912 -0.3309 -0.2052 -0.2107
 8265W        W18525  15.949   8.475   6.755 -0.1899 -0.1070 -0.0807
 8266W        W18526   3.931   8.876   1.252 -0.2993 -0.1474 -0.3234
 8267W        W18527   1.101   7.776   8.023 -0.3169 -0.0314 -0.0234
 8268W        W18528  12.891  10.438   6.780  0.0618 -0.1942  0.0820
 8269W        W18529   2.330   5.561   7.181 -0.1862  0.0848 -0.0264
 8270W        W18530  13.878  10.532   2.562  0.1177 -0.1043  0.0175
 8271W        W18531   1.426  11.842   1.553 -0.3575 -0.3410 -0.0711
 8272W        W18532  11.594   6.045   6.890  0.0551 -0.3740 -0.1686
 8273W        W18533   4.479   9.256   7.468  0.0720 -0.1469  0.0263
 8274W        W18534   2.337   6.413   8.340  0.2016 -0.2568  0.0650
 8275W        W18535  12.364   8.798   0.492  0.2348  0.0476  0.2814
 8276W        W18536  13.247  10.433   1.269  0.0256  0.0161  0.0948
 8277W        W18537   4.268   5.901   7.463  0.1064  0.1384 -0.0654
 8278W        W18538  13.812   8.203   6.758  0.0657 -0.0578  0.0338
 8279W        W18539   0.373   5.613   1.373  0.0933 -0.3802  0.1236
 8280W        W18540   1.775   7.857   2.401 -0.0719  0.2270  0.0995
 8281W        W18541  15.281  14.403   2.062 -0.0522  0.0301  0.1558
 8282W        W18542   9.787   9.169   1.553  0.0305 -0.0399 -0.0751
 8283W        W18543   4.552  10.442   8.503  0.0235 -0.0683  0.1773
 8284W        W18544   3.841   6.830   0.314 -0.1790  0.0404 -0.1182
 8285W        W18545   0.448   8.956   1.708 -0.0390 -0.0769  0.1345
 8286W        W18546   2.584  10.116   0.257 -0.2561 -0.0479 -0.1051
 8287W        W18547   6.440   8.516   0.613 -0.1351  0.0946  0.1897
 8288W        W18548  11.570   3.053   1.087 -0.2995  0.0175 -0.0513
 8289W        W18549   0.383   8.297   6.850 -0.0258  0.0481 -0.0605
 8290W        W18550  16.118  10.744   1.953 -0.2283  0.2280 -0.0028
 8291W        W18551  15.869  10.481   8.513  0.1369  0.1455 -0.0869
 8292W        W18552   5.397   4.382   7.065  0.1322 -0.1721  0.0662
 8293W        W18553  13.290   7.409   8.182  0.0529 -0.1692 -0.0625
 8294W        W18554   3.805   8.324   8.034 -0.1323  0.3212  0.0438
 8295W        W18555   8.910   2.107   7.698 -0.0967  0.0167 -0.0057
 8296W        W18556   1.880   9.002   1.584  0.0608  0.3243 -0.0374
 8297W        W18557   2.030  10.207   7.619 -0.1952 -0.2437 -0.0134
 8298W        W18558   4.644   6.852   0.526  0.0077  0.0984  0.0602
 8299W        W18559  10.558   8.929   7.105 -0.1979 -0.0311 -0.1831
 8300W        W18560  16.534   7.994   1.888 -0.0544 -0.6195 -0.0150
 8301W        W18561   9.073   2.859   2.849 -0.0070 -0.3401 -0.1498
 8302W        W18562   2.345   7.150   8.604 -0.1706 -0.0192 -0.1467
 8303W        W18563   2.057   0.684   7.659 -0.0776  0.1525 -0.2556
 8304W        W18564  14.507   9.535   0.988  0.0727 -0.0152 -0.3735
 8305W        W18565   0.764   8.914   0.716  0.2419 -0.0026  0.2063
 8306W        W18566  13.455   7.391   6.737 -0.2292 -0.0941  0.3083
 8307W        W18567   2.634  11.113   0.274 -0.1916  0.0076  0.1660
 8308W        W18568  15.366   7.039   6.771  0.2255 -0.2157  0.2076
 8309W        W18569   6.950   7.966   7.548  0.2473 -0.0172 -0.1873
 8310W        W18570   8.727   8.022   2.055  0.0086 -0.0313 -0.1160
 8311W        W18571   1.387  13.432   8.366  0.0043 -0.3127 -0.1943
 8312W        W18572   3.180   9.944   1.178 -0.0525 -0.1797 -0.0831
 8313W        W18573   9.714   9.989   2.643 -0.1966  0.1034  0.4168
 8314W        W18574   0.342  13.198   8.211  0.0681 -0.0539  0.0698
 8315W        W18575   7.309   5.058   2.028  0.1630  0.2443 -0.1030
 8316W        W18576   3.843   8.645   7.414 -0.3499  0.0762  0.0087
 8317W        W18577   5.879   9.422   0.656  0.0086  0.1220 -0.0588
 8318W        W18578   9.193   0.958   0.444  0.3343  0.0938  0.0735
 8319W        W18579   5.876   4.841   0.566 -0.1193 -0.0927  0.0862
 8320W        W18580   6.410   6.187   2.186  0.1053  0.3129 -0.2667
 8321W        W18581   4.464   7.934   7.610  0.0906 -0.0228  0.3409
 8322W        W18582   6.135   4.515   7.126 -0.1041  0.2705 -0.3257
 8323W        W18583   0.487  13.551   0.815 -0.0199 -0.2865 -0.2917
 8324W        W18584   4.219   3.787   8.569 -0.2148  0.1035 -0.0294
 8325W        W18585   7.607   7.598   0.088 -0.1267 -0.1837 -0.2256
 8326W        W18586   6.114   9.022   2.290 -0.4118 -0.1948 -0.1372
 8327W        W18587   9.605   8.729   8.672  0.2851 -0.1563 -0.2935
 8328W        W18588   3.747  12.709   8.518  0.2604 -0.1148 -0.1622
 8329W        W18589   5.699   7.078   0.186  0.2795  0.0054 -0.0600
 8330W        W18590   9.565  14.343   1.944  0.2807  0.1849 -0.5771
 8331W        W18591  10.495   6.253   6.891 -0.0721  0.2863 -0.2899
 8332W        W18592   5.000  10.616   1.891  0.0375 -0.1387  0.1213
 8333W        W18593   4.035   3.334   8.093 -0.2310  0.3521 -0.0097
 8334W        W18594   9.076   8.382   1.364  0.1956 -0.1514  0.1782
 8335W        W18595   7.798   5.528   7.127 -0.2170  0.0525 -0.0039
 8336W        W18596  12.434   6.811   0.060 -0.2154 -0.1172 -0.4865
 8337W        W18597   9.125  10.967   6.883  0.0872  0.2587 -0.0009
 8338W        W18598   5.676   3.493   1.641  0.1719  0.0319 -0.1882
 8339W        W18599   5.011   3.133   1.793 -0.1134  0.1805 -0.0504
 8340W        W18600   4.744   5.739   1.387 -0.3174  0.1488  0.0264
 8341W        W18601   5.806   8.408   6.889  0.0299  0.0706 -0.1678
 8342W        W18602   3.880   5.974   2.030  0.0951  0.0723  0.1885
 8343W        W18603   4.190   5.465   7.176  0.3384  0.3114  0.0267
 8344W        W18604   1.682   2.563   7.905 -0.1154 -0.1892  0.0280
 8345W        W18605   2.424  10.294   1.650  0.0370 -0.1354  0.3806
 8346W        W18606   4.720   5.153   8.514  0.1086  0.0454 -0.0191
 8347W        W18607   4.209   8.279   7.142  0.0473 -0.1284 -0.1715
 8348W        W18608   1.290  14.718   7.995  0.1348  0.1444 -0.0104
 8349W        W18609   4.472   3.664   6.919 -0.1280 -0.0472  0.0404
 8350W        W18610   5.492   9.936   0.862 -0.1594 -0.1813  0.0110
 8351W        W18611   6.632  15.311   0.179  0.2927 -0.3069 -0.3937
 8352W        W18612   3.638   2.908   1.504  0.2815 -0.0317  0.0946
 8353W        W18613   3.182  12.981   2.251  0.2340 -0.1166 -0.1235
 8354W        W18614   3.193  11.266   0.717 -0.0505  0.1619  0.4445
 8355W        W18615   6.406   4.794   0.350  0.0827  0.0253  0.4059
 8356W        W18616   6.573   8.984   0.407 -0.0722 -0.0258 -0.0198
 8357W        W18617   7.967   6.132   0.435  0.0449 -0.2807 -0.2568
 8358W        W18618  10.073   9.393   0.177 -0.1410  0.0037 -0.2436
 8359W        W18619   5.163   2.620   1.808  0.2044  0.1909 -0.2835
 8360W        W18620   3.260  14.338   8.017 -0.0155  0.2302 -0.1013
 8361W        W18621   8.859  11.788   0.189 -0.1411  0.4449  0.3192
 8362W        W18622  11.158   3.943   6.559 -0.2944  0.2337 -0.0052
 8363W        W18623   3.758   7.957   6.912 -0.0191  0.1952  0.3942
 8364W        W18624   8.007   9.322   8.641  0.2838 -0.1720  0.0912
 8365W        W18625   5.201  11.550   0.227 -0.2394 -0.2490 -0.1488
 8366W        W18626   6.411  12.148   1.104 -0.3240  0.0214  0.0347
 8367W        W18627   7.754  13.479   1.384  0.2349 -0.0175 -0.1228
 8368W        W18628  14.225  11.174   7.915  0.0666 -0.0195 -0.0648
 8369W        W18629   3.407  11.269   1.604  0.2165  0.1209  0.0659
 8370W        W18630   2.506   9.732   7.213  0.3729  0.3207 -0.1469
 8371W        W18631   6.835   6.551   1.311  0.0406  0.1952 -0.2475
 8372W        W18632   8.087   5.400   2.241 -0.0614  0.1562 -0.1793
 8373W        W18633   6.355  11.562   1.087 -0.1520  0.1791 -0.1329
 8374W        W18634   6.463  14.961   7.123  0.1261 -0.2308 -0.1978
 8375W        W18635   4.053   6.423   8.430  0.2224  0.1819  0.2449
 8376W        W18636  14.010   9.574   0.855  0.1883 -0.3795 -0.0989
 8377W        W18637   4.344   6.801   7.640  0.0542  0.0225 -0.0798
 8378W        W18638   5.792   5.446   0.092  0.1049 -0.1478 -0.0168
 8379W        W18639   1.826   5.906   8.338  0.0943 -0.2513 -0.1214
 8380W        W18640   6.915  11.407   6.706  0.2029 -0.1886 -0.0465
 8381W        W18641   8.312   5.417   6.999  0.4963  0.0475 -0.0134
 8382W        W18642   8.287   6.388   8.186  0.2648  0.3890 -0.0939
 8383W        W18643   9.105  14.473   1.791 -0.0147 -0.0274 -0.0069
 8384W        W18644   8.735   9.469   2.733 -0.1655  0.3059  0.1046
 8385W        W18645   3.504   6.520   7.286  0.1914  0.1530  0.4245
 8386W        W18646   8.587  11.165   0.180 -0.0931 -0.3091  0.2124
 8387W        W18647   7.242  10.905   1.196 -0.0248 -0.2460 -0.3104
 8388W        W18648   7.758   8.709   1.294  0.0386  0.0711 -0.1698
 8389W        W18649   6.765   0.302   6.343  0.1424  0.0993  0.1166
 8390W        W18650   6.032  15.510   0.735  0.2009 -0.2170  0.1761
 8391W        W18651   2.848   2.535   0.190  0.1576 -0.0962  0.1123
 8392W        W18652   2.481   4.770   1.933 -0.1454 -0.1740  0.0541
 8393W        W18653   3.128   6.145   7.258  0.3321  0.0844  0.1784
 8394W        W18654   6.045   7.737   1.729  0.1679  0.1250  0.0011
 8395W        W18655   6.002   6.700   0.108  0.1258  0.1614 -0.3591
 8396W        W18656   2.574   7.389   1.783 -0.0291 -0.0881 -0.2578
 8397W        W18657   7.363   5.560   0.935  0.1082  0.0725  0.1482
 8398W        W18658  13.869  13.536   1.650 -0.0872  0.3341 -0.0216
 8399W        W18659   4.620  12.260   7.735 -0.0518 -0.0104 -0.1554
 8400W        W18660   4.493   9.622   7.897  0.0458 -0.1285 -0.1685
 8401W        W18661   8.300  11.189   6.642 -0.0297 -0.0645 -0.0003
 8402W        W18662   9.635   8.535   7.263  0.0159  0.2912 -0.1070
 8403W        W18663  12.245   6.341   7.780  0.2508  0.0619 -0.3505
 8404W        W18664   1.540  11.539   6.436 -0.0717 -0.1187  0.3594
 8405W        W18665   2.614   7.532   2.366 -0.1663  0.1077  0.0505
 8406W        W18666   3.472   4.842   7.577 -0.2431 -0.2420  0.1698
 8407W        W18667   8.498   7.221   8.502  0.0772  0.0902  0.2033
 8408W        W18668   5.565   4.930   1.433 -0.0587 -0.1727 -0.2512
 8409W        W18669   3.186   5.029   1.403 -0.2657 -0.2487 -0.0833
 8410W        W18670   7.583   6.918   8.474  0.1268 -0.1108  0.2470
 8411W        W18671   9.021   7.616   1.858 -0.0338 -0.0806 -0.0793
 8412W        W18672   2.957   5.957   6.701  0.0314 -0.1690  0.3003
 8413W        W18673   3.549   8.365   0.631  0.1419  0.1405  0.1147
 8414W        W18674   6.283   3.758   1.374  0.0664 -0.1079  0.1522
 8415W        W18675   7.243  10.088   1.605  0.1128 -0.0158 -0.1445
 8416W        W18676   6.498   6.732   2.869 -0.1802 -0.0813 -0.3128
 8417W        W18677   6.295   6.677   1.922  0.0625 -0.0349  0.0884
 8418W        W18678   2.768   6.694   8.383  0.1355  0.4143  0.2071
 8419W        W18679   4.094   5.379   0.948  0.0062  0.0161 -0.0165
 8420W        W18680   4.842   8.155   0.969  0.2803 -0.1777  0.1831
 8421W        W18681   4.010   8.980   6.768  0.0309  0.2066 -0.0656
 8422W        W18682   3.875   9.405   7.008  0.2091  0.0583  0.1262
 8423W        W18683   0.298   2.604   7.344 -0.0446  0.2121 -0.2496
 8424W        W18684   7.450  15.812   0.095  0.2360 -0.0017  0.0459
 8425W        W18685   8.417  11.347   1.497 -0.3249  0.2439 -0.0931
 8426W        W18686   4.746  10.855   1.149  0.2185 -0.1091 -0.0223
 8427W        W18687   4.695   4.104   0.085  0.0150 -0.0608 -0.1314
 8428W        W18688   5.135  12.551   0.052  0.1781 -0.0116 -0.3519
 8429W        W18689   9.253  15.706   7.397  0.1309 -0.0393 -0.0685
 8430W        W18690   3.840  11.836   7.515 -0.0186  0.1567  0.0757
 8431W        W18691   7.997  12.627   1.800  0.3219  0.1181 -0.1598
 8432W        W18692   1.655   6.432   1.916 -0.1996 -0.2667  0.3956
 8433W        W18693   1.318  10.483   8.419 -0.0512  0.2082 -0.2014
 8434W        W18694   7.315   5.102   0.172  0.1564  0.0653 -0.2552
 8435W        W18695   2.071   2.524   6.065 -0.3842 -0.0072 -0.1854
 8436W        W18696   4.876   6.256   7.664 -0.1132  0.0513 -0.0882
 8437W        W18697   5.606   8.428   2.142  0.1889  0.0397 -0.2268
 8438W        W18698  14.599   2.266   7.692  0.2259 -0.3032 -0.1076
 8439W        W18699  15.185   4.350   7.814 -0.1255 -0.2069 -0.0118
 8440W        W18700  11.348  11.945   1.440  0.1445  0.0694  0.0840
 8441W        W18701   8.433  10.859   1.619 -0.1095 -0.0088  0.2385
 8442W        W18702   5.898   4.207   2.285 -0.0338 -0.2018 -0.0205
 8443W        W18703   5.932   7.269   1.999  0.0917  0.2376 -0.0124
 8444W        W18704   6.347  12.984   7.953 -0.0136 -0.0534  0.1566
 8445W        W18705   2.885   9.203   0.075 -0.1047 -0.4462  0.0252
 8446W        W18706   3.545   6.921   8.019 -0.2535 -0.0707  0.0445
 8447W        W18707   7.240   7.478   0.422  0.2521  0.0438 -0.3312
 8448W        W18708   3.785  11.610   1.728  0.1031 -0.0030 -0.1070
 8449W        W18709   5.287  10.167   0.455  0.1541  0.1405 -0.1314
 8450W        W18710   8.864  12.430   0.791 -0.1511  0.2822  0.3743
 8451W        W18711   5.615   7.180   6.234  0.1049  0.2986  0.0570
 8452W        W18712   6.251   9.290   1.047 -0.0174 -0.0166  0.0335
 8453W        W18713  12.395   7.557   8.536  0.4203  0.1893 -0.0844
 8454W        W18714   6.196   3.596   8.377 -0.1061  0.2792 -0.0113
 8455W        W18715   4.712   2.756   7.556  0.1884  0.0917 -0.0277
 8456W        W18716   6.779   3.954   7.117  0.3816 -0.0151  0.0745
 8457W        W18717  11.866   4.709   1.661  0.3862 -0.4705 -0.1517
 8458W        W18718   5.161  10.868   7.313 -0.0056  0.3092  0.1310
 8459W        W18719   8.106   4.749   8.268 -0.0113  0.0129  0.0213
 8460W        W18720   5.874   6.262   0.339 -0.0713  0.2266  0.3029
 8461W        W18721   6.042  13.367   8.012  0.0175  0.1143  0.1926
 8462W        W18722   5.596   8.116   0.367  0.4125 -0.2792  0.0345
 8463W        W18723   3.309  11.738   1.640  0.1177 -0.0698  0.0674
 8464W        W18724   5.555   5.432   1.311 -0.0095 -0.2084 -0.2334
 8465W        W18725   7.138   8.127   8.006 -0.1855 -0.3515  0.0408
 8466W        W18726   2.693   5.700   0.786  0.1535  0.2416  0.0051
 8467W        W18727   5.110  12.853   0.920 -0.1224 -0.2337  0.2392
 8468W        W18728  13.783  11.717   0.441  0.2219  0.0187  0.1280
 8469W        W18729   8.636   8.382   7.641  0.1068  0.3188  0.0263
 8470W        W18730   5.139   6.999   0.334 -0.2438 -0.2324  0.0814
 8471W        W18731   5.717   2.207   0.974  0.0391 -0.0935  0.0746
 8472W        W18732   4.200   7.745   1.338  0.0095  0.0729 -0.1158
 8473W        W18733   4.011   7.234   8.029  0.0621 -0.1486  0.1224
 8474W        W18734  15.971   1.704   7.424 -0.1419  0.0976  0.0371
 8475W        W18735   3.951   2.597   1.176 -0.1613  0.0147 -0.1008
 8476W        W18736   9.084   8.684   5.881  0.0774 -0.0426  0.1556
 8477W        W18737   7.742   5.146   6.236  0.0329  0.1747  0.0539
 8478W        W18738  11.965   6.076   0.046  0.0998 -0.0641  0.1873
 8479W        W18739   2.403   8.334   2.000 -0.1459  0.0820 -0.1288
 8480W        W18740   7.813   2.446   1.645 -0.0008 -0.0754 -0.0421
 8481W        W18741   6.678   8.322   1.650  0.0089 -0.2785  0.2410
 8482W        W18742  10.675  10.861   8.500 -0.1717  0.0558 -0.1040
 8483W        W18743   9.295  14.441   2.409  0.2313 -0.1479 -0.0280
 8484W        W18744  12.146   6.866   8.017 -0.1762  0.1578 -0.4099
 8485W        W18745  10.869   9.015   6.658  0.0154  0.0320  0.0127
 8486W        W18746   5.074   8.642   8.040 -0.0431 -0.1686 -0.1353
 8487W        W18747   7.687   4.596   7.578 -0.3476  0.1985  0.0519
 8488W        W18748   7.655   1.601   8.104 -0.0267 -0.0994 -0.2282
 8489W        W18749   2.305   1.938   1.091 -0.1904 -0.1070  0.0226
 8490W        W18750   8.492  10.697   6.550  0.1078 -0.1949  0.4192
 8491W        W18751   7.576  11.175   0.798 -0.0939  0.0569  0.1835
 8492W        W18752   4.765   9.148   0.989 -0.3037 -0.0657  0.0192
 8493W        W18753   5.895   7.086   7.192  0.2550  0.0262 -0.3801
 8494W        W18754   2.619   8.140   8.501  0.0087 -0.2647  0.2982
 8495W        W18755   3.148  10.613   6.132 -0.1281  0.2554 -0.0729
 8496W        W18756   0.636  10.925   1.104  0.3419  0.1261  0.0092
 8497W        W18757   7.981  13.148   0.022  0.1073  0.2052 -0.0728
 8498W        W18758   8.791   8.855   2.114 -0.2068  0.0033  0.1086
 8499W        W18759   2.055  11.011   8.226  0.2457 -0.0527 -0.3016
 8500W        W18760  16.570  11.042   7.232 -0.0135 -0.0086  0.1289
 8501W        W18761   3.440   6.523   7.769 -0.0581 -0.2829  0.0554
 8502W        W18762   9.267   5.084   2.202  0.1633 -0.0155  0.2511
 8503W        W18763   4.950   7.297   8.282  0.2077  0.0838  0.0630
 8504W        W18764  12.442   7.437   2.401 -0.2866  0.3615  0.0252
 8505W        W18765   7.510  11.687   7.881 -0.3156 -0.0916 -0.2085
 8506W        W18766   6.949   4.730   2.142 -0.0763  0.0893  0.0411
 8507W        W18767   5.669   1.311   1.798 -0.0272  0.0386  0.0130
 8508W        W18768   4.039  12.412   0.635  0.3829 -0.4715  0.0616
 8509W        W18769   6.535   9.293   2.503 -0.3156  0.0330  0.1225
 8510W        W18770   4.836   3.819   7.450 -0.2772  0.0764  0.0890
 8511W        W18771   6.044   8.714   7.362 -0.2977  0.1240  0.0994
 8512W        W18772   3.175   3.541   8.284  0.0165 -0.2700  0.0735
 8513W        W18773   8.895  10.465   1.447 -0.2529  0.2721  0.1699
 8514W        W18774   7.821   8.216   7.285 -0.1078 -0.1833  0.0181
 8515W        W18775  16.222   2.743   7.777  0.1542 -0.1647  0.0756
 8516W        W18776  12.167   8.055   5.735  0.0920  0.0220  0.1579
 8517W        W18777   5.636  12.301   0.194 -0.0009 -0.0392  0.2737
 8518W        W18778   4.106   6.335   0.981  0.0216 -0.1098 -0.2286
 8519W        W18779  12.259  13.930   1.688  0.2056  0.0403  0.0645
 8520W        W18780   5.131   0.290   2.097  0.2659  0.0484  0.1131
 8521W        W18781  10.394   6.808   0.453  0.1583  0.1081  0.0913
 8522W        W18782  10.644  14.823   1.468 -0.0080  0.0779  0.1647
 8523W        W18783   5.649   4.334   0.208  0.0107  0.1168 -0.1832
 8524W        W18784  12.485  10.437   0.704 -0.2213 -0.0899 -0.1279
 8525W        W18785   7.448  11.506   6.773  0.2827 -0.0557 -0.0765
 8526W        W18786   4.755   8.440   2.359  0.1014 -0.1394  0.1958
 8527W        W18787  15.489   7.510   0.264 -0.2432 -0.0638 -0.0547
 8528W        W18788   8.022   7.267   8.365  0.0392 -0.1925  0.1434
 8529W        W18789   1.886   4.560   7.454 -0.0983 -0.3279  0.1113
 8530W        W18790   9.089  11.623   0.811  0.0374  0.0446 -0.0681
 8531W        W18791  14.098  16.171   1.921 -0.0959  0.1062  0.0606
 8532W        W18792   6.060   9.889   6.986 -0.1020  0.4232  0.1490
 8533W        W18793   8.740  10.906   8.474  0.0270  0.1237  0.2808
 8534W        W18794   5.605   2.865   7.953 -0.0748  0.1217 -0.1507
 8535W        W18795   3.321   6.871   2.255  0.0817 -0.2068 -0.1778
 8536W        W18796  16.468  11.570   0.534  0.2016  0.0806  0.2658
 8537W        W18797   8.466  15.271   1.902 -0.2693  0.2057 -0.1392
 8538W        W18798   4.551  12.517   6.823 -0.0953  0.2379 -0.0045
 8539W        W18799  13.389   7.031   1.335 -0.3825 -0.0734  0.1011
 8540W        W18800  10.999   8.046   0.122 -0.0715 -0.1638 -0.1465
 8541W        W18801  10.736   3.598   6.450  0.0782 -0.0316 -0.3008
 8542W        W18802   5.489   8.632   7.457  0.2255 -0.1270 -0.1502
 8543W        W18803  11.215   5.047   7.554  0.0930 -0.0889 -0.0190
 8544W        W18804   9.669   4.256   1.626  0.1663  0.0288 -0.3880
 8545W        W18805   7.702  10.166   1.745  0.2709 -0.2015  0.0488
 8546W        W18806  11.229   4.016   7.776  0.0219 -0.1708 -0.2182
 8547W        W18807   8.012  12.691   1.343 -0.0030 -0.2128 -0.1701
 8548W        W18808  10.526   3.592   0.129  0.2134  0.2470 -0.0375
 8549W        W18809  11.696  11.787   6.314  0.3186 -0.0034  0.3242
 8550W        W18810  10.344   7.216   0.171  0.2157  0.3791 -0.1199
 8551W        W18811   7.454   9.604   1.933 -0.0204 -0.1177  0.4460
 8552W        W18812   2.879   5.903   1.215  0.2425  0.0739  0.0837
 8553W        W18813  12.015  10.506   8.462  0.2008 -0.2067 -0.3901
 8554W        W18814  10.392   9.403   7.087 -0.0257 -0.1451 -0.0056
 8555W        W18815   4.603   6.719   1.638  0.1176 -0.3349 -0.1680
 8556W        W18816   8.708   5.174   0.217 -0.2270  0.0903  0.1252
 8557W        W18817   9.160  11.174   1.993  0.4698 -0.3940  0.0925
 8558W        W18818   3.430   7.619   6.355  0.2415 -0.2224 -0.1788
 8559W        W18819   5.762   4.753   2.264  0.0219 -0.0852  0.1202
 8560W        W18820   9.382   3.546   1.152 -0.0382 -0.1455 -0.2345
 8561W        W18821   7.107  10.923   8.117  0.0369  0.0106  0.0598
 8562W        W18822   7.148   7.189   8.625  0.1202  0.1846  0.1917
 8563W        W18823   7.758   4.451   8.038 -0.0024  0.0154 -0.1178
 8564W        W18824   6.103   9.573   2.242  0.3905 -0.0653 -0.0528
 8565W        W18825  10.506  16.217   1.406 -0.0822 -0.2545  0.0587
 8566W        W18826   5.117   8.208   0.534  0.0127 -0.0407  0.2137
 8567W        W18827  11.635  12.795   1.617 -0.0830 -0.1652  0.0061
 8568W        W18828   5.165   8.619   2.047 -0.1838  0.0288  0.1122
 8569W        W18829  10.199   6.194   8.487 -0.2827 -0.0279  0.1749
 8570W        W18830   7.161   5.777   0.476 -0.0813 -0.0464 -0.0395
 8571W        W18831   5.995  11.232   7.689  0.5176  0.2364 -0.1741
 8572W        W18832  14.089   6.328   8.163 -0.2731 -0.1553  0.2410
 8573W        W18833   7.152   9.509   1.336 -0.1790 -0.2917 -0.0520
 8574W        W18834  13.394  10.945   1.145  0.2231 -0.0218 -0.1271
 8575W        W18835   9.382  15.291   6.100  0.1117 -0.1303  0.2662
 8576W        W18836  10.122   5.734   7.540  0.1652 -0.0978  0.0886
 8577W        W18837   3.546   9.282   7.948 -0.0338  0.3151 -0.1965
 8578W        W18838  14.525  13.850   0.618 -0.1671 -0.0332  0.0757
 8579W        W18839   9.899   7.192   2.000  0.3460 -0.0558 -0.2260
 8580W        W18840   9.534  11.471   7.526 -0.0283  0.0036  0.0809
 8581W        W18841   7.423   6.157   0.329 -0.0153  0.2209  0.1503
 8582W        W18842  13.738   9.402   7.766  0.0213  0.2615  0.0689
 8583W        W18843   7.786  11.931   8.259 -0.1727  0.4377 -0.0948
 8584W        W18844  11.972  15.014   8.255 -0.1795  0.2901 -0.1759
 8585W        W18845   8.833   6.848   2.829 -0.4288 -0.0686 -0.2608
 8586W        W18846  14.721   8.091   7.064 -0.4871  0.1137 -0.2095
 8587W        W18847  13.068  12.899   2.525 -0.0789 -0.2219 -0.2148
 8588W        W18848   7.140   7.710   1.070  0.0203 -0.1471  0.1413
 8589W        W18849  14.887   9.979   8.604 -0.1128 -0.0420  0.0006
 8590W        W18850   5.784   1.637   0.835 -0.0499  0.3002  0.0823
 8591W        W18851   4.096  11.485   2.199  0.0858 -0.0348  0.1048
 8592W        W18852  16.035  10.882   1.396  0.2250 -0.0130  0.0316
 8593W        W18853  11.315  13.725   8.140  0.0257  0.0282  0.0948
 8594W        W18854   8.568   8.731   8.559  0.1039 -0.1282 -0.0554
 8595W        W18855  11.581   8.016   0.855  0.0160 -0.1614 -0.1277
 8596W        W18856  14.263   6.638   8.611 -0.0320 -0.1242  0.0511
 8597W        W18857   9.860  11.108   7.750 -0.1063  0.2468  0.0312
 8598W        W18858   5.628   3.633   8.349  0.2772  0.0609 -0.0135
 8599W        W18859   5.835  11.664   7.926  0.0053  0.1188 -0.4929
 8600W        W18860   5.715   7.095   7.774  0.0066  0.1178  0.2225
 8601W        W18861   5.996  15.143   2.263  0.1982  0.0480  0.1641
 8602W        W18862   7.034   5.565   2.341  0.1826 -0.1692 -0.0276
 8603W        W18863  10.590   7.444   1.109  0.0588 -0.0721 -0.1091
 8604W        W18864   8.688   4.984   8.429  0.1591  0.0990 -0.2883
 8605W        W18865   9.053   0.290   6.840  0.2471  0.2589  0.2664
 8606W        W18866   9.024   3.938   7.657  0.0720  0.0146  0.4491
 8607W        W18867   5.234   4.773   0.539 -0.2101  0.1297  0.1242
 8608W        W18868  11.095  12.492   6.673  0.0277 -0.0363  0.2544
 8609W        W18869   9.132   5.001   8.154  0.1006  0.1166 -0.1881
 8610W        W18870   7.658  15.514   8.027  0.0274  0.3770 -0.2174
 8611W        W18871  11.168  15.874   0.828  0.0233  0.0386 -0.0539
 8612W        W18872  11.989  10.248   0.939 -0.2074 -0.0826 -0.1458
 8613W        W18873   9.662   9.041   6.950  0.0783  0.2238 -0.1587
 8614W        W18874   8.853  11.719   1.260 -0.0302 -0.1228  0.0910
 8615W        W18875   7.467  13.847   8.174 -0.1811  0.2227  0.0887
 8616W        W18876   7.930   8.100   8.631 -0.2483 -0.2159 -0.1366
 8617W        W18877  12.481  12.292   6.290 -0.4524 -0.0006  0.0058
 8618W        W18878   8.799   5.478   7.704 -0.1848 -0.2281  0.4271
 8619W        W18879   9.032   2.085   6.855  0.1964  0.2427  0.0849
 8620W        W18880   5.837   8.612   6.106 -0.2690 -0.1196 -0.1554
 8621W        W18881   6.668  10.713   7.362  0.0263  0.0137 -0.0382
 8622W        W18882  12.009   3.336   2.059 -0.0622  0.3259  0.2457
 8623W        W18883   8.229   0.831   7.907  0.1496 -0.2891 -0.1582
 8624W        W18884   5.508   4.910   7.927  0.3167  0.0167 -0.0908
 8625W        W18885   3.711   6.476   0.618 -0.1955  0.3513  0.2092
 8626W        W18886   6.757   4.755   8.318 -0.2117  0.2569 -0.3752
 8627W        W18887   2.146  13.068   7.747  0.1977  0.4938  0.2309
 8628W        W18888  14.808  12.657   1.207  0.0984 -0.0674  0.0611
 8629W        W18889   6.982   9.363   0.455 -0.0509  0.0346  0.2422
 8630W        W18890   8.362  10.480   8.496 -0.1895 -0.2340 -0.0255
 8631W        W18891   7.447   8.467   0.595 -0.0418  0.1303  0.1136
 8632W        W18892   6.495   3.457   6.078  0.2635  0.1090  0.0285
 8633W        W18893   5.494   6.746   6.568  0.0438 -0.0346 -0.1052
 8634W        W18894  11.422  10.156   7.576 -0.4126  0.1225 -0.3638
 8635W        W18895   9.108   2.325   0.357 -0.0746  0.0594 -0.1364
 8636W        W18896  13.588   5.637   1.097  0.2516  0.0944 -0.3012
 8637W        W18897   9.311   8.399   0.250 -0.1692 -0.0875 -0.1111
 8638W        W18898   9.714  11.321   1.106 -0.1197  0.0081  0.1539
 8639W        W18899   7.933  15.071   2.137  0.1987 -0.2665  0.0787
 8640W        W18900   6.699  13.126   0.909  0.0768  0.4093  0.0201
 8641W        W18901  16.302   8.384   1.582 -0.1129  0.0454 -0.0835
 8642W        W18902  13.302   6.564   1.585 -0.4316  0.1013 -0.2679
 8643W        W18903  15.213  12.047   1.923  0.0483  0.0701 -0.1189
 8644W        W18904   8.668   3.905   0.048  0.2038 -0.1907  0.1452
 8645W        W18905   9.848  10.222   1.589  0.1098 -0.1962  0.0043
 8646W        W18906   3.416   8.515   7.575  0.0213 -0.1198  0.0977
 8647W        W18907   9.733   5.888   1.535 -0.0018  0.0987 -0.0613
 8648W        W18908  11.655   6.753   1.671  0.1254  0.1822  0.1374
 8649W        W18909   8.667  12.600   8.630  0.0270  0.1229  0.0813
 8650W        W18910   6.988  12.920   0.296 -0.1163 -0.0451 -0.0340
 8651W        W18911  11.728  10.883   2.179  0.0083 -0.1970 -0.0722
 8652W        W18912   6.970  11.884   0.480  0.1732  0.1029 -0.0290
 8653W        W18913   6.628  11.922   1.479 -0.0206  0.2455  0.1176
 8654W        W18914  10.446   6.840   2.005 -0.0033  0.1651 -0.2292
 8655W        W18915  10.167  11.900   7.592  0.0297 -0.0037 -0.0095
 8656W        W18916   8.891   7.743   1.066  0.0868 -0.0486  0.2416
 8657W        W18917   8.859  11.527   2.334 -0.3077 -0.0096 -0.0761
 8658W        W18918  13.256   9.477   1.601 -0.0738 -0.0466  0.1432
 8659W        W18919  10.673   0.907   2.284 -0.4410  0.3018 -0.0372
 8660W        W18920   4.345   4.554   7.218  0.0095  0.1304 -0.2573
 8661W        W18921  10.388   4.499   7.189 -0.2331  0.0529  0.0343
 8662W        W18922   6.956   4.287   8.251 -0.0107  0.2051 -0.1464
 8663W        W18923  12.526  11.131   1.399  0.3245 -0.1505 -0.1882
 8664W        W18924  13.025  13.608   7.696 -0.1646 -0.0955 -0.1852
 8665W        W18925   9.156  11.953   7.323 -0.0319  0.1727 -0.1182
 8666W        W18926   9.611   5.050   8.656 -0.0348  0.4769  0.2464
 8667W        W18927   9.526   2.313   6.990  0.0198 -0.0097  0.0072
 8668W        W18928  10.187  14.254   0.163  0.0095  0.0070  0.0556
 8669W        W18929   7.247   5.634   6.759 -0.0571 -0.2111 -0.0823
 8670W        W18930   2.682  12.298   2.658 -0.0600 -0.1200 -0.1646
 8671W        W18931  13.072   5.820   6.924  0.0108 -0.2205 -0.0293
 8672W        W18932   5.850   8.146   1.502 -0.0445 -0.0628  0.0786
 8673W        W18933   9.450   6.847   2.983 -0.0179  0.0753 -0.2798
 8674W        W18934   5.187   4.918   0.075  0.0253 -0.3937  0.0443
 8675W        W18935   4.672  10.243   1.883  0.0470  0.2326 -0.3961
 8676W        W18936   1.249   6.618   8.128 -0.2261  0.1934 -0.1082
 8677W        W18937  12.815   8.599   1.396 -0.2386  0.1897 -0.0121
 8678W        W18938   8.763   6.235   0.857  0.0235 -0.1648  0.0754
 8679W        W18939  12.098   5.581   8.047 -0.3504 -0.0975  0.1459
 8680W        W18940   8.774  12.243   0.311 -0.0014 -0.2374 -0.2708
 8681W        W18941   5.904   8.960   1.285 -0.4300 -0.2554 -0.0143
 8682W        W18942  10.044   8.840   0.098 -0.1572 -0.2021  0.0171
 8683W        W18943  11.288   8.401   7.598  0.2534  0.0105 -0.0679
 8684W        W18944   8.196  11.502   0.202 -0.2002  0.0107 -0.1889
 8685W        W18945  11.764  14.314   6.490 -0.1525  0.0227  0.0745
 8686W        W18946  11.727  13.204   1.149 -0.0770 -0.0477 -0.0025
 8687W        W18947   9.675   8.293   7.969  0.2932 -0.0986 -0.0622
 8688W        W18948   7.166  13.391   0.176  0.0366 -0.0026 -0.0100
 8689W        W18949  10.127   6.447   0.630 -0.1134  0.3569  0.0527
 8690W        W18950   3.268   6.298   0.509  0.0474 -0.0838 -0.1130
 8691W        W18951   9.085   4.713   8.582  0.1183  0.1425  0.1268
 8692W        W18952  15.126   4.127   1.324  0.2162 -0.1243  0.2290
 8693W        W18953   7.588   1.878   8.558 -0.1987  0.0469 -0.2333
 8694W        W18954  10.854   6.575   7.068  0.0934 -0.2809 -0.5476
 8695W        W18955  11.337  11.738   0.607 -0.1557 -0.2587  0.0209
 8696W        W18956  11.354   8.529   0.559 -0.2325 -0.0283  0.2173
 8697W        W18957   5.745  12.357   7.445  0.0339  0.1515 -0.1157
 8698W        W18958   9.750   8.967   1.995  0.1576  0.2006 -0.3146
 8699W        W18959   8.084  11.020   7.057  0.2772 -0.0526 -0.2122
 8700W        W18960   8.426   3.416   6.901  0.3099 -0.0094  0.3171
 8701W        W18961   8.809   8.434   0.274 -0.3719 -0.0878 -0.2406
 8702W        W18962  11.208   5.809   6.555  0.0816 -0.1155 -0.1379
 8703W        W18963   7.819  11.466   1.115  0.1821  0.1493 -0.1217
 8704W        W18964   6.653   5.402   6.156  0.0828  0.1171  0.2649
 8705W        W18965  12.258  11.863   6.204  0.1456  0.4320  0.2221
 8706W        W18966   2.727   9.561   1.152 -0.0412 -0.2186 -0.0788
 8707W        W18967  10.223  11.529   0.987 -0.0258  0.1004  0.1141
 8708W        W18968   5.120   5.904   6.835 -0.0144  0.1220 -0.4085
 8709W        W18969   6.340   6.677   1.362  0.0332 -0.0348 -0.1586
 8710W        W18970  10.885  11.254   1.953 -0.0458  0.1439  0.1849
 8711W        W18971  14.797   5.800   8.546 -0.0463 -0.2479 -0.3320
 8712W        W18972  13.492  12.198   0.476  0.0074 -0.3402  0.2409
 8713W        W18973  11.985   6.258   7.250  0.0207  0.0241 -0.4532
 8714W        W18974   5.062   7.811   1.485 -0.3187 -0.1776  0.3034
 8715W        W18975  11.490   9.867   1.881 -0.2114 -0.1315 -0.2088
 8716W        W18976   8.508   1.925   1.941 -0.1101  0.1043 -0.0550
 8717W        W18977   9.869  15.810   6.671 -0.2454  0.0650 -0.1023
 8718W        W18978   5.683   4.743   7.170  0.2530 -0.0808  0.0055
 8719W        W18979   8.342   4.710   1.061 -0.0331 -0.0650 -0.0997
 8720W        W18980   7.105  12.611   2.255 -0.2656 -0.1348 -0.2103
 8721W        W18981   5.952   5.782   2.112  0.1273 -0.3306 -0.1202
 8722W        W18982   8.710  11.235   7.640 -0.0920 -0.0678  0.3214
 8723W        W18983  10.019   9.359   2.105  0.0375  0.0530 -0.0981
 8724W        W18984  13.890  12.654   8.065  0.1211  0.1534 -0.0388
 8725W        W18985   5.972   7.035   1.050  0.1350  0.3199 -0.0963
 8726W        W18986  11.376   9.254   6.617 -0.2611  0.2918 -0.0856
 8727W        W18987   4.873   8.265   1.871  0.0362  0.3095  0.3648
 8728W        W18988  14.005   6.362   7.616  0.0761  0.3331  0.1352
 8729W        W18989  14.414   9.367   0.058 -0.3111  0.3478 -0.0655
 8730W        W18990  14.932   7.561   2.009  0.0475  0.0788  0.0588
 8731W        W18991  13.276  13.200   1.088  0.0581  0.1166  0.1733
 8732W        W18992  13.354  10.322   7.238 -0.0526  0.2960  0.0129
 8733W        W18993  14.284  12.571   0.295 -0.0503  0.2017  0.0909
 8734W        W18994  10.617  11.100   1.442 -0.1212 -0.0031 -0.0122
 8735W        W18995   6.959   4.671   6.496 -0.1217  0.2883  0.1793
 8736W        W18996  14.614  13.759   8.460  0.0410 -0.1793 -0.1316
 8737W        W18997  14.704   4.368   1.080  0.0930 -0.0844 -0.1574
 8738W        W18998   0.198  11.264   2.198  0.0488  0.1055  0.1501
 8739W        W18999  13.263   9.863   6.074  0.1889 -0.0168 -0.0262
 8740W        W19000  10.934   8.057   7.677 -0.2619  0.2151 -0.0164
 8741W        W19001   8.507   5.042   2.156 -0.1180  0.0256  0.1002
 8742W        W19002  11.781  12.723   7.763  0.1983  0.1052 -0.1101
 8743W        W19003   6.089  13.286   1.888 -0.2920 -0.1471  0.2808
 8744W        W19004   5.040   9.637   8.339 -0.1635  0.0247  0.2075
 8745W        W19005  12.943  10.477   0.835  0.0323  0.1221  0.3358
 8746W        W19006   8.219  11.016   1.082 -0.0008  0.0519  0.3524
 8747W        W19007   6.655   8.186   7.880  0.1060  0.0640 -0.0842
 8748W        W19008  15.034  12.461   0.000 -0.2104  0.0811 -0.0342
 8749W        W19009   7.673   5.119   1.058  0.1157 -0.1238 -0.0111
 8750W        W19010   8.523   6.642   1.915  0.0120  0.0102 -0.0216
 8751W        W19011   5.413   8.304   1.688 -0.2083 -0.1611 -0.0788
 8752W        W19012  14.744   5.163   0.404  0.1906 -0.1575 -0.0682
 8753W        W19013  11.916  11.451   8.367  0.2676 -0.2487 -0.3513
 8754W        W19014  11.689   7.643   0.082  0.3825  0.0585 -0.0009
 8755W        W19015  12.552   8.024   8.628  0.1449 -0.0038  0.0528
 8756W        W19016   9.753   6.134   0.974  0.3014  0.0942 -0.0842
 8757W        W19017  13.581   9.552   0.293 -0.2862  0.3657  0.1698
 8758W        W19018   8.499   9.555   6.838  0.1649 -0.5189 -0.1080
 8759W        W19019  15.636   8.913   7.669 -0.2213  0.0317 -0.0010
 8760W        W19020  12.992  13.162   2.050  0.0778  0.0055  0.0589
 8761W        W19021   2.038   9.579   0.516 -0.2178  0.0993 -0.0548
 8762W        W19022   7.549   9.009   7.115 -0.0334 -0.0428  0.1460
 8763W        W19023   6.476   9.433   0.628  0.2410 -0.0296 -0.0135
 8764W        W19024   3.791  15.494   2.707 -0.0206 -0.0053  0.0983
 8765W        W19025   7.416  11.378   1.466 -0.1910  0.1442 -0.1998
 8766W        W19026   7.010   3.082   8.548 -0.0048 -0.0268  0.0939
 8767W        W19027  12.051   7.993   0.115 -0.0420  0.0420 -0.0429
 8768W        W19028  13.630   6.956   6.914  0.2109  0.2885 -0.2637
 8769W        W19029  13.595   7.481   7.738 -0.1832  0.1633 -0.1099
 8770W        W19030   2.087  15.447   1.876 -0.1073  0.1531 -0.2491
 8771W        W19031  10.233   5.653   0.661  0.1265  0.4246  0.1866
 8772W        W19032  11.897   5.927   1.965 -0.3093 -0.0007  0.1307
 8773W        W19033   8.898   1.769   1.492 -0.1619 -0.1991  0.0569
 8774W        W19034  11.566   8.385   2.776 -0.0246  0.2067  0.2281
 8775W        W19035  12.126  14.832   1.420  0.1737 -0.0879  0.2830
 8776W        W19036  13.706   8.107   8.475 -0.1837  0.3203  0.2886
 8777W        W19037  13.284   4.174   0.785 -0.0167 -0.3232 -0.1020
 8778W        W19038  11.455   4.142   0.878 -0.1955 -0.1985 -0.3765
 8779W        W19039  11.900   7.711   1.083 -0.1710 -0.0697 -0.1045
 8780W        W19040  13.323  14.017   8.480 -0.0723 -0.3299  0.1120
 8781W        W19041   8.749  10.438   8.143  0.1954 -0.0236 -0.0618
 8782W        W19042   8.285   8.159   1.799 -0.2900  0.0252 -0.0645
 8783W        W19043   9.546  12.319   1.397  0.0605 -0.2950  0.1608
 8784W        W19044  15.674   7.015   0.044  0.0343  0.2667 -0.0175
 8785W        W19045  14.921   9.846   6.765 -0.0653 -0.2359  0.5298
 8786W        W19046  13.252   8.374   6.719  0.0468  0.0814 -0.4688
 8787W        W19047  14.066  10.554   1.644  0.0385 -0.3234  0.0621
 8788W        W19048  11.331   8.941   8.416 -0.2327 -0.1600  0.1392
 8789W        W19049  14.649   2.755   0.412  0.1725 -0.2597  0.2561
 8790W        W19050  11.803   8.830   0.564  0.1989  0.0261  0.1103
 8791W        W19051  12.277  16.096   0.095  0.0287 -0.0637 -0.1914
 8792W        W19052  14.464  16.267   7.739 -0.1459 -0.2258 -0.0630
 8793W        W19053  14.342  10.373   1.186  0.1845 -0.0422  0.0030
 8794W        W19054   2.512   8.159   0.368  0.0517  0.0388 -0.3462
 8795W        W19055   3.306  12.413   0.136 -0.0432  0.0867  0.1290
 8796W        W19056   5.695   2.968   0.178 -0.2904  0.1192  0.1308
 8797W        W19057  10.207   6.077   1.035 -0.0967 -0.1434 -0.0110
 8798W        W19058  11.990  11.718   7.748 -0.0572 -0.1562  0.0990
 8799W        W19059  10.752   8.259   1.375  0.1426  0.0546  0.3318
 8800W        W19060   7.051   7.602   2.776  0.1637  0.0158  0.1472
 8801W        W19061  12.530  10.989   8.123  0.0316 -0.3060 -0.3282
 8802W        W19062  13.659   4.247   7.849 -0.1013  0.0597  0.0427
 8803W        W19063  14.919  11.705   1.727 -0.1133  0.0349 -0.3001
 8804W        W19064   4.257   2.782   0.800  0.0325 -0.0072 -0.1502
 8805W        W19065  10.915  11.838   8.344 -0.0195 -0.1276 -0.0420
 8806W        W19066   0.009   4.617   1.275 -0.1369 -0.3896  0.0679
 8807W        W19067   8.569   6.613   7.819  0.1546 -0.1356  0.1894
 8808W        W19068  14.096  12.397   1.849  0.2681 -0.0835  0.1902
 8809W        W19069  10.799   9.585   7.523  0.1748 -0.0764  0.0336
 8810W        W19070   4.601   5.384   7.429  0.1172 -0.0378  0.0360
 8811W        W19071  11.704   2.244   1.460  0.3047 -0.1416 -0.3855
 8812W        W19072  13.519   7.228   0.634  0.1293 -0.2666  0.1169
 8813W        W19073  12.160  13.250   0.245 -0.0742 -0.0016  0.1571
 8814W        W19074  14.407   1.491   1.167  0.0844  0.4103  0.0560
 8815W        W19075  15.190  10.063   6.214  0.1853  0.2016 -0.0125
 8816W        W19076  11.953   6.930   7.171 -0.1635 -0.2796  0.1366
 8817W        W19077   8.515   9.246   7.353  0.1717 -0.0334  0.1678
 8818W        W19078   9.753  13.773   2.215  0.2192 -0.2002 -0.2724
 8819W        W19079  11.283  13.169   1.445 -0.0624 -0.2746  0.0999
 8820W        W19080  12.125  10.639   1.259 -0.5007 -0.1123 -0.0582
 8821W        W19081   0.040  10.125   7.828 -0.1482 -0.3224  0.0380
 8822W        W19082  11.626   9.419   0.600 -0.0324  0.2530 -0.1020
 8823W        W19083   7.438   5.442   8.420 -0.0804  0.1553  0.1177
 8824W        W19084  10.993   9.585   6.565  0.0940  0.1199  0.3612
 8825W        W19085   6.165   2.391   7.399 -0.4210 -0.0888  0.2387
 8826W        W19086  11.441  10.671   8.499 -0.0478 -0.1935  0.0948
 8827W        W19087  13.671   6.834   0.948 -0.3688  0.2056 -0.1289
 8828W        W19088  15.646  13.937   7.731 -0.2566 -0.1176  0.1120
 8829W        W19089  14.592   8.082   7.579 -0.1047 -0.3267  0.0241
 8830W        W19090  12.613   5.663   6.789 -0.3973 -0.0685  0.0422
 8831W        W19091   7.427  10.128   7.096 -0.1660 -0.1360 -0.1286
 8832W        W19092  11.862   8.526   7.284 -0.0695 -0.1486 -0.1254
 8833W        W19093  15.539   4.633   0.502 -0.1960 -0.1966 -0.1426
 8834W        W19094  14.698  11.465   7.993 -0.1186  0.1033 -0.1161
 8835W        W19095  16.315   6.307   7.592 -0.3963  0.0416 -0.0208
 8836W        W19096   3.830   8.022   0.227 -0.2770  0.1409  0.0485
 8837W        W19097  13.822  15.292   0.356  0.0928 -0.2478  0.1543
 8838W        W19098  14.193   1.674   8.657 -0.2443  0.1465 -0.0203
 8839W        W19099  10.990  14.335   7.387  0.0195  0.1119 -0.0281
 8840W        W19100   8.854   6.084   8.673  0.1475 -0.3211  0.0953
 8841W        W19101  11.771   9.954   0.566  0.0506  0.0666 -0.1391
 8842W        W19102  15.264   8.571   0.011 -0.3770  0.1104  0.1839
 8843W        W19103  14.867  11.394   8.466 -0.0355  0.2543 -0.0253
 8844W        W19104  12.533   6.481   8.200 -0.3613 -0.1602  0.0085
 8845W        W19105  13.954   4.876   0.884 -0.1618  0.1139 -0.1671
 8846W        W19106   8.353  14.344   0.619 -0.1145 -0.1147 -0.2666
 8847W        W19107   0.951  16.143   8.653 -0.0273 -0.2645 -0.1371
 8848W        W19108   0.759   6.139   7.403 -0.2867 -0.1384  0.3019
 8849W        W19109   9.527  11.038   7.303 -0.0999  0.1474  0.1639
 8850W        W19110   8.358   1.260   7.746 -0.2866 -0.6300  0.2509
 8851W        W19111  15.400   7.287   1.890 -0.2147  0.3527  0.1303
 8852W        W19112  13.716   1.641   8.677 -0.2843 -0.0587  0.4521
 8853W        W19113   6.871  10.057   1.284  0.1667 -0.1101  0.0285
 8854W        W19114  13.440   5.429   6.965 -0.0828 -0.0293  0.0294
 8855W        W19115  10.614   1.807   0.301 -0.1260  0.0183 -0.0324
 8856W        W19116  11.181   7.583   0.113  0.2479  0.3952  0.0585
 8857W        W19117   6.632   4.296   1.059  0.0880  0.0460 -0.2966
 8858W        W19118   6.810   9.634   6.125 -0.2735  0.0205  0.0919
 8859W        W19119  14.111   8.907   1.785 -0.2909 -0.0423  0.2789
 8860W        W19120  12.873   6.010   8.572  0.1412 -0.0537  0.0352
 8861W        W19121   0.912   9.096   1.499  0.1992 -0.2817 -0.2284
 8862W        W19122  10.584   6.605   7.619 -0.2420  0.0722  0.0633
 8863W        W19123   0.904   6.183   0.551  0.1190  0.2144  0.0481
 8864W        W19124  11.992   8.750   1.367  0.2262  0.0671 -0.1138
 8865W        W19125  10.231   4.989   8.028 -0.1826 -0.1017 -0.0330
 8866W        W19126   3.109   2.333   1.156  0.3724 -0.0249 -0.2131
 8867W        W19127  13.235  13.464   6.564 -0.0821 -0.1837 -0.1110
 8868W        W19128  13.661   4.132   8.291  0.0194  0.2406 -0.0850
 8869W        W19129  14.326  11.292   8.432  0.1714 -0.0574  0.2458
 8870W        W19130   6.217  11.108   1.328 -0.1047 -0.2821 -0.1507
 8871W        W19131  14.696  13.183   1.222 -0.0231  0.1246  0.4408
 8872W        W19132  13.036  11.090   8.383 -0.2042  0.0332 -0.1492
 8873W        W19133  13.283   3.589   1.875  0.3846 -0.2332 -0.0205
 8874W        W19134   6.102   1.961   1.124 -0.1636  0.0627 -0.1230
 8875W        W19135   5.626   9.345   1.567  0.2494 -0.4318  0.0819
 8876W        W19136  13.225   6.895   8.265  0.1469  0.1844  0.0269
 8877W        W19137   8.746   6.543   0.463  0.0130  0.0451 -0.0531
 8878W        W19138  11.385  14.415   1.790 -0.1010  0.3087  0.3028
 8879W        W19139  11.383  11.653   6.683  0.0380 -0.0552  0.1646
 8880W        W19140  10.345   6.693   1.413  0.0384  0.4615  0.0676
 8881W        W19141   6.843  14.922   1.789 -0.0500 -0.1801  0.0473
 8882W        W19142  11.050   7.624   7.931  0.0878  0.2498 -0.2022
 8883W        W19143   0.206   6.617   0.851  0.0855  0.1662  0.1032
 8884W        W19144  15.774  10.174   0.268  0.0161 -0.0631 -0.0260
 8885W        W19145  14.411  15.203   7.943  0.0542 -0.0613 -0.1251
 8886W        W19146  13.220  10.847   7.030 -0.3019 -0.0742 -0.2556
 8887W        W19147  11.268   9.198   0.863  0.1457  0.4274 -0.2769
 8888W        W19148  16.119   8.032   8.048  0.1130  0.1694 -0.1482
 8889W        W19149   8.391   9.528   0.344 -0.1566  0.2120  0.1525
 8890W        W19150  13.181   7.129   5.789  0.1080  0.1065  0.1964
 8891W        W19151   9.217   5.902   8.291 -0.0658 -0.1816  0.0225
 8892W        W19152  11.554   5.385   7.436  0.0068  0.4167  0.0931
 8893W        W19153  12.295   8.192   2.037  0.3646 -0.3883 -0.2095
 8894W        W19154  12.347   9.912   0.399  0.1482 -0.0635  0.0329
 8895W        W19155  15.364  11.603   8.336 -0.3298  0.3112 -0.1348
 8896W        W19156  12.732   7.508   0.762  0.0777  0.2058  0.1550
 8897W        W19157   8.098   6.768   8.464 -0.1471  0.2443 -0.0313
 8898W        W19158  13.187   4.075   6.843 -0.2312 -0.0941  0.0020
 8899W        W19159  15.455  12.000   7.392 -0.0130  0.0824  0.0476
 8900W        W19160   8.985   8.534   1.818 -0.1809 -0.0495  0.0593
 8901W        W19161  14.651   3.086   1.394  0.1101 -0.0965  0.2655
 8902W        W19162   9.613   4.774   6.832 -0.1672  0.2155  0.4582
 8903W        W19163  11.700   8.503   7.848 -0.2602  0.0074  0.1231
 8904W        W19164   7.524   6.952   0.832  0.2622 -0.3410 -0.0423
 8905W        W19165   8.606   2.981   0.821 -0.0981 -0.1386  0.3509
 8906W        W19166  12.487   9.195   2.023 -0.1855  0.3144  0.0418
 8907W        W19167   1.962   3.985   0.089 -0.2144  0.1773 -0.1856
 8908W        W19168   9.799   6.914   1.519 -0.1894 -0.0336 -0.3150
 8909W        W19169  14.649  12.100   1.880 -0.0608  0.2269  0.0182
 8910W        W19170  15.639   2.569   1.359  0.3570 -0.0982 -0.1529
 8911W        W19171  10.155  16.104   1.934 -0.1646 -0.4837  0.1031
 8912W        W19172  12.738  11.532   7.458  0.0240 -0.0277 -0.0964
 8913W        W19173  14.200   9.118   7.803 -0.3176 -0.2748 -0.1227
 8914W        W19174  13.360  13.816   0.331 -0.2098 -0.1251 -0.1859
 8915W        W19175   9.881  11.392   8.438  0.1320  0.2896  0.0203
 8916W        W19176  11.156   8.962   1.287 -0.1864  0.0092 -0.1124
 8917W        W19177  15.226   7.779   8.072  0.1498 -0.1924 -0.0529
 8918W        W19178   2.064   3.930   6.748  0.5800  0.1237 -0.0820
 8919W        W19179   8.011   3.120   8.673  0.0278  0.0722 -0.2321
 8920W        W19180  12.333  13.458   5.797  0.1183  0.2936  0.0053
 8921W        W19181  14.846   7.018   0.325 -0.1837 -0.3210  0.2115
 8922W        W19182   1.644   3.655   6.942  0.0373  0.0046 -0.0565
 8923W        W19183   4.804   8.352   6.801  0.0382 -0.0490  0.0897
 8924W        W19184  13.736   6.650   8.363 -0.3013  0.0688 -0.0484
 8925W        W19185  13.615   4.471   2.239  0.1876  0.0228  0.1319
 8926W        W19186  10.824  16.493   0.145  0.2805  0.0347  0.0458
 8927W        W19187   3.628   8.646   8.310  0.1327 -0.3464 -0.0741
 8928W        W19188  13.621  11.561   7.331 -0.3417 -0.4065 -0.2063
 8929W        W19189  11.281   6.401   8.113  0.1152 -0.1770  0.0286
 8930W        W19190  14.603   8.650   0.861  0.0137 -0.0765 -0.2848
 8931W        W19191   0.653   7.285   0.755 -0.4503  0.1741  0.2107
 8932W        W19192  12.233  13.909   1.012  0.1875 -0.4157  0.1784
 8933W        W19193  11.160  11.580   7.947  0.0160  0.1543  0.3851
 8934W        W19194  13.656   7.816   2.252  0.2756 -0.0126  0.0280
 8935W        W19195  16.315  13.839   0.578 -0.0365  0.1781  0.1306
 8936W        W19196  13.920   7.462   0.314  0.3000  0.0210 -0.2227
 8937W        W19197   1.043   0.290   6.673  0.1048  0.1113 -0.2663
 8938W        W19198  14.507  10.482   2.480  0.0830  0.2327  0.1643
 8939W        W19199  12.493   6.582   1.596  0.4406  0.2319 -0.0906
 8940W        W19200  15.085   0.119   7.004  0.2972  0.1937 -0.1491
 8941W        W19201   0.493   5.253   6.473 -0.3309 -0.0046  0.0103
 8942W        W19202  12.722   3.033   1.432 -0.0106  0.2272 -0.2158
 8943W        W19203   4.865   6.744   7.713 -0.1738  0.0545  0.0565
 8944W        W19204   3.189  12.946   7.338 -0.2393  0.1695  0.2542
 8945W        W19205  15.906  11.118   7.364 -0.1362 -0.4097  0.0349
 8946W        W19206   0.155   9.952   0.388  0.1317  0.4322  0.1461
 8947W        W19207  15.993   3.655   1.183 -0.2622  0.3016 -0.2245
 8948W        W19208  12.433   9.743   7.703 -0.0783  0.1166 -0.3437
 8949W        W19209   1.905   2.983   1.823  0.2774  0.4459  0.0393
 8950W        W19210  12.945   3.715   8.049 -0.2185 -0.0984 -0.0260
 8951W        W19211   3.916   9.421   0.154  0.0285 -0.1427 -0.0218
 8952W        W19212  13.902   8.110   1.091 -0.2052 -0.2710 -0.1367
 8953W        W19213  16.571   7.942   0.829 -0.0099 -0.1367  0.1742
 8954W        W19214   1.905  11.481   0.472 -0.3485 -0.1976 -0.3669
 8955W        W19215  13.143  11.702   7.211  0.0675 -0.3511  0.0162
 8956W        W19216  11.423  10.541   7.921  0.0824  0.0091 -0.1966
 8957W        W19217   0.979  10.224   0.335 -0.1251 -0.4021  0.2910
 8958W        W19218  16.306  12.824   1.674  0.2335  0.2404  0.2346
 8959W        W19219  15.775  10.430   7.280  0.0669 -0.0848 -0.2241
 8960W        W19220  16.376  12.802   1.150  0.3053 -0.1383 -0.0455
 8961W        W19221   1.111   4.562   8.667  0.4802  0.2670 -0.4334
 8962W        W19222  15.800   7.145   2.263 -0.4819  0.0997 -0.0208
 8963W        W19223  15.527  12.476   0.051  0.2367  0.1932 -0.0858
 8964W        W19224   9.396   8.589   6.863 -0.2552 -0.0875  0.1024
 8965W        W19225   1.645   5.078   7.280  0.0232  0.0069 -0.0697
 8966W        W19226   3.524  11.486   2.491  0.2413  0.1542  0.0238
 8967W        W19227   3.672   8.461   0.080 -0.0569  0.0724 -0.1323
 8968W        W19228   2.813  11.731   1.456  0.1080 -0.1955 -0.2214
 8969W        W19229  15.875   9.333   1.296  0.1870 -0.1458  0.1441
 8970W        W19230   1.588   4.408   8.586 -0.0081 -0.0452 -0.3116
 8971W        W19231  15.592   2.936   6.973  0.3892 -0.0828  0.0309
 8972W        W19232  11.908   7.742   0.528 -0.0682  0.0690 -0.2446
 8973W        W19233   1.444   8.252   7.972  0.1205 -0.1247  0.3004
 8974W        W19234   4.201   8.696   0.878 -0.0178 -0.0299  0.2164
 8975W        W19235   9.258  14.110   1.506  0.0800  0.1105 -0.0273
 8976W        W19236  13.241  15.668   7.281 -0.0755 -0.2426  0.1282
 8977W        W19237  16.261   8.516   7.200 -0.1376 -0.2028  0.1074
 8978W        W19238  10.738   3.537   7.144 -0.1804  0.3872  0.2689
 8979W        W19239   2.835   7.716   6.716 -0.0313  0.1195  0.1104
 8980W        W19240  14.617   4.312   0.057  0.1952 -0.2408 -0.1604
 8981W        W19241   0.142   5.200   1.123 -0.0863  0.1848  0.4570
 8982W        W19242  16.243   6.362   1.598 -0.1739  0.0981 -0.0707
 8983W        W19243  14.325  10.019   0.799 -0.1573  0.1037 -0.0921
 8984W        W19244   4.750  13.774   2.085  0.0887  0.1299 -0.0310
 8985W        W19245  12.819   5.401   7.205  0.0621 -0.0489  0.1237
 8986W        W19246  16.162   8.376   0.257  0.0723 -0.1539 -0.3594
 8987W        W19247  16.120   4.635   0.977 -0.0494  0.1937  0.2925
 8988W        W19248   6.768   7.116   2.668 -0.0502 -0.2079  0.0968
 8989W        W19249  13.991   7.771   6.113  0.0408 -0.0211  0.1414
 8990W        W19250  15.571  10.739   2.616  0.2928 -0.1091  0.1043
 8991W        W19251   2.509   3.764   6.802 -0.1722  0.3400  0.1311
 8992W        W19252  13.033   5.294   1.305  0.0094 -0.1971  0.2739
 8993W        W19253  11.057  11.478   1.494  0.1841  0.0440 -0.3260
 8994W        W19254  15.066   6.969   8.188  0.0322 -0.1347 -0.2068
 8995W        W19255   0.635   9.078   2.428  0.0255  0.1180 -0.1049
 8996W        W19256  13.713   1.668   2.636  0.0770 -0.3383 -0.1385
 8997W        W19257  15.315   9.971   0.244 -0.0544  0.3133 -0.0973
 8998W        W19258  13.652  10.837   0.209 -0.1342  0.1502  0.1562
 8999W        W19259  10.109  12.042   0.157 -0.1544  0.3518 -0.0238
 9000W        W19260  11.633  16.172   1.539  0.0208  0.2851  0.0933
 9001W        W19261  16.189  12.679   6.314  0.4720 -0.0103 -0.1268
 9002W        W19262  10.609  13.275   0.914 -0.1801  0.0840 -0.0308
 9003W        W19263   4.768   5.005   5.648 -0.1216  0.1200  0.1465
 9004W        W19264   1.495  10.986   7.551 -0.0836 -0.0605 -0.1059
 9005W        W19265  15.606  10.674   1.859  0.2373 -0.3370 -0.3232
 9006W        W19266  15.534   9.836   1.994 -0.1508  0.0439 -0.0103
 9007W        W19267   0.152   8.606   8.230  0.2228 -0.0183 -0.0099
 9008W        W19268   0.311  15.633   1.096  0.1707 -0.2519  0.0322
 9009W        W19269  16.536   8.886   0.364  0.1959  0.6771 -0.2573
 9010W        W19270   5.406  12.345   7.070 -0.1170  0.2510  0.1560
 9011W        W19271  11.829   5.681   0.312 -0.4732 -0.3323 -0.0451
 9012W        W19272   7.980   2.393   0.448 -0.1116 -0.0627  0.0630
 9013W        W19273  11.616   8.263   1.397  0.0965 -0.3563 -0.1687
 9014W        W19274  15.826  14.076   6.459 -0.0354  0.1982  0.0506
 9015W        W19275  14.488  11.353   1.106  0.2319 -0.1436 -0.1600
 9016W        W19276   3.590   9.800   7.658  0.0186 -0.0787 -0.1517
 9017W        W19277  16.478   9.669   2.255  0.2691 -0.2306  0.0445
 9018W        W19278  13.290  10.148   8.297 -0.1330  0.1338 -0.0541
 9019W        W19279  14.076   5.928   1.907 -0.4567  0.0113 -0.0372
 9020W        W19280  16.020   6.077   7.990 -0.0182  0.1481  0.0016
 9021W        W19281   9.375  12.892   8.255 -0.1260 -0.4154 -0.0637
 9022W        W19282   7.206   9.425   7.474 -0.0044 -0.1074 -0.3742
 9023W        W19283  12.239   5.926   1.046 -0.0202 -0.0396  0.1639
 9024W        W19284  12.749   5.409   7.878  0.0771  0.0430  0.1977
 9025W        W19285   3.222   8.723   1.800 -0.0051  0.0938 -0.2997
 9026W        W19286   7.297  12.102   1.289  0.2024 -0.2259  0.1543
 9027W        W19287  14.896   7.612   7.741 -0.3786  0.0926  0.2233
 9028W        W19288  14.707   6.284   8.481  0.0506  0.4456  0.2311
 9029W        W19289   1.120   6.576   6.805  0.1733 -0.2954 -0.2383
 9030W        W19290  13.287  14.838   6.485  0.0128  0.0076 -0.0138
 9031W        W19291   1.045   6.899   0.879  0.1288 -0.1201 -0.0968
 9032W        W19292   0.809   9.773   7.696  0.4851  0.1005  0.0192
 9033W        W19293  15.529   6.133   1.005 -0.3076 -0.0365  0.0205
 9034W        W19294  10.203   4.471   1.547  0.2565  0.1231  0.3297
 9035W        W19295  10.597   5.788   7.708  0.0266  0.1313  0.0549
 9036W        W19296   6.169   5.379   1.980 -0.0408  0.1127  0.4015
 9037W        W19297  14.098  12.762   8.532  0.0987 -0.1860 -0.1224
 9038W        W19298  13.898  10.121   0.976  0.0623  0.1064 -0.1075
 9039W        W19299   1.625   8.604   7.052  0.0933  0.0593  0.0379
 9040W        W19300  10.460  11.704   0.383 -0.0531  0.2072 -0.1566
 9041W        W19301   9.923   3.808   2.300  0.0884  0.1368 -0.1249
 9042W        W19302  11.950   8.252   0.654 -0.0920 -0.0404  0.3871
 9043W        W19303   1.970   8.104   0.534  0.1321 -0.0108 -0.3187
 9044W        W19304   1.792   9.041   7.493 -0.1534  0.0830 -0.2546
 9045W        W19305  14.776  13.175   6.472  0.1006  0.0986  0.0977
 9046W        W19306   2.786   8.865   1.631 -0.1789 -0.1431  0.0830
 9047W        W19307  14.210  12.797   1.157 -0.0362  0.1419 -0.0548
 9048W        W19308   1.268   9.168   1.823 -0.0978  0.0007 -0.0784
 9049W        W19309  10.908   8.574   0.348  0.4044 -0.1381 -0.1055
 9050W        W19310  12.336  10.276   2.179  0.0419 -0.2588 -0.0839
 9051W        W19311   0.113   8.767   6.959  0.0841 -0.3798 -0.2106
 9052W        W19312  13.186   8.336   1.118  0.1811 -0.2643  0.2408
 9053W        W19313  11.778   9.493   1.509  0.1694 -0.0643 -0.1249
 9054W        W19314   2.032   8.266   6.840  0.0630 -0.3818  0.2879
 9055W        W19315   8.963   9.964   1.511 -0.0395  0.3369  0.2824
 9056W        W19316  14.594  11.906   6.094 -0.2564 -0.0991  0.0769
 9057W        W19317  11.595  10.397   6.676  0.0374 -0.1387 -0.2607
 9058W        W19318   0.080   8.009   7.709 -0.2837  0.1329 -0.1705
 9059W        W19319   1.292   7.253   1.732  0.0605  0.0253  0.2137
 9060W        W19320  11.051   9.595   1.018 -0.1291 -0.1831  0.0141
 9061W        W19321   0.396   3.997   1.189  0.2039  0.0205  0.1034
 9062W        W19322  14.053   9.199   0.391  0.0980 -0.0504  0.1441
 9063W        W19323   1.128  10.652   1.167  0.2877  0.1009  0.1559
 9064W        W19324   6.938  12.409   1.062  0.2041  0.1354 -0.1486
 9065W        W19325   6.141  11.778   7.567 -0.0307 -0.2335 -0.1908
 9066W        W19326   5.263  11.909   1.881 -0.1073  0.1268 -0.1696
 9067W        W19327  16.082  14.692   1.851  0.3406 -0.1817 -0.1375
 9068W        W19328   2.489   4.210   7.912  0.1783  0.1360  0.2562
 9069W        W19329   4.834  10.737   8.231  0.0920 -0.0603 -0.3198
 9070W        W19330   1.104   9.003   8.489 -0.1734 -0.2011 -0.0088
 9071W        W19331  16.088   7.905   1.681 -0.0317  0.1116  0.2283
 9072W        W19332  12.576  12.625   6.630 -0.1892 -0.2242  0.0024
 9073W        W19333  14.519  13.502   7.249  0.0529 -0.1555 -0.2609
 9074W        W19334   3.054  12.634   1.817  0.2166  0.0749 -0.4120
 9075W        W19335   7.424   2.209   1.712  0.0580  0.0975  0.1076
 9076W        W19336   3.053  10.456   1.116  0.0679  0.0682 -0.1349
 9077W        W19337  13.200   8.627   1.897 -0.1237 -0.0438 -0.0901
 9078W        W19338   0.679   9.323   0.942  0.1809 -0.1303 -0.0539
 9079W        W19339   2.799  16.152   2.255 -0.2056 -0.0249  0.0515
 9080W        W19340   4.070  10.786   8.353 -0.0269  0.2827  0.1404
 9081W        W19341   5.133  14.766   8.067  0.0293 -0.0056  0.0602
 9082W        W19342  14.493   3.101   0.098  0.2298 -0.0983 -0.1875
 9083W        W19343   3.311  11.640   0.319  0.1229 -0.1855  0.1713
 9084W        W19344   2.585  12.246   8.138 -0.1441 -0.0252 -0.2833
 9085W        W19345   4.972  12.696   6.982  0.0344  0.2694  0.1574
 9086W        W19346   5.225  13.064   1.449  0.2761  0.0532 -0.1134
 9087W        W19347   4.497  11.762   1.487  0.0091  0.0772 -0.0045
 9088W        W19348  15.211  13.989   8.591 -0.1236  0.2211 -0.1347
 9089W        W19349  12.797  14.428   7.786 -0.1443 -0.1006 -0.1050
 9090W        W19350  13.859  11.395   8.205  0.1536 -0.7487 -0.1810
 9091W        W19351   0.126   6.380   0.005  0.0890  0.0854 -0.5066
 9092W        W19352   2.763  11.057   5.843  0.0756  0.1360 -0.0683
 9093W        W19353  14.237   1.635   1.651  0.0519 -0.2971 -0.0067
 9094W        W19354  13.732  13.434   1.222  0.4031  0.1834 -0.3126
 9095W        W19355   3.494  12.237   1.727  0.2241  0.1557 -0.2986
 9096W        W19356   1.859   6.424   0.877 -0.1692 -0.0710  0.0065
 9097W        W19357   6.028   9.659   1.395 -0.2705 -0.0408 -0.1193
 9098W        W19358   2.045  11.112   2.246  0.0438 -0.1117 -0.2082
 9099W        W19359  14.854  13.375   7.598 -0.1381 -0.0126 -0.0827
 9100W        W19360  11.364  10.260   7.090  0.0460  0.0998  0.0277
 9101W        W19361  14.873   2.003   8.667 -0.2075 -0.1335 -0.1457
 9102W        W19362   0.063  14.406   7.828 -0.0924 -0.1308 -0.1878
 9103W        W19363   6.276   2.168   8.672  0.1860 -0.0746 -0.1911
 9104W        W19364   3.457   5.253   7.294  0.3809 -0.0044  0.1338
 9105W        W19365  16.001   0.252   1.102  0.0539 -0.0620 -0.1299
 9106W        W19366   0.530  10.234   7.520  0.1169 -0.1582  0.2109
 9107W        W19367   8.480  11.479   7.198  0.4391  0.1673  0.1310
 9108W        W19368   9.085  10.279   0.908 -0.0143 -0.1440 -0.0195
 9109W        W19369   5.470  12.666   1.246  0.2159 -0.1654 -0.2837
 9110W        W19370   0.013  11.519   7.084 -0.0798  0.1844 -0.2515
 9111W        W19371   4.098   0.461   0.111  0.1525 -0.2308  0.1234
 9112W        W19372   6.815  12.778   8.282 -0.3224 -0.0227  0.1236
 9113W        W19373   1.861  12.366   7.576 -0.1194 -0.1034  0.2425
 9114W        W19374   7.044  14.006   0.864  0.1172 -0.2576 -0.0470
 9115W        W19375   3.408  13.184   6.876  0.0742 -0.1770  0.0629
 9116W        W19376   4.286   0.580   6.951 -0.1250  0.1477  0.1009
 9117W        W19377  13.124   9.306   0.177 -0.1622 -0.2060 -0.2431
 9118W        W19378  16.222   7.600   7.119 -0.0074  0.0895  0.1006
 9119W        W19379  10.444   0.353   1.438  0.1228  0.1229  0.0153
 9120W        W19380   0.757  16.567   7.697  0.1228 -0.1253 -0.1042
 9121W        W19381   2.177   9.424   1.459 -0.3170  0.1567 -0.0545
 9122W        W19382   6.979   9.249   1.746  0.2230  0.0220  0.1415
 9123W        W19383   7.484   1.605   1.037 -0.0345  0.3461 -0.2910
 9124W        W19384   5.058  10.407   0.842  0.0181  0.1070 -0.2632
 9125W        W19385  13.747   9.926   8.576  0.2320 -0.0251  0.2503
 9126W        W19386   1.602   9.471   2.420  0.0091  0.1050 -0.1298
 9127W        W19387   1.121  16.223   6.029  0.2594  0.0144  0.2077
 9128W        W19388   9.933  10.036   8.580 -0.0748  0.0678 -0.1656
 9129W        W19389   4.507  12.420   1.516  0.0237 -0.3259  0.2859
 9130W        W19390  13.564   3.988   1.593  0.1203  0.2497 -0.3525
 9131W        W19391  14.443   8.798   0.352 -0.2318 -0.1089 -0.1571
 9132W        W19392  15.337   9.576   8.537 -0.0262  0.0868 -0.1031
 9133W        W19393   4.005   0.263   1.812  0.0188  0.1319  0.1118
 9134W        W19394   4.697   4.687   8.147  0.0593 -0.2716  0.2085
 9135W        W19395  15.451   0.324   1.891  0.0318 -0.4061  0.0191
 9136W        W19396   5.404   6.882   1.214 -0.1989 -0.0572  0.3036
 9137W        W19397   1.411   3.241   1.850 -0.2445  0.1555  0.2600
 9138W        W19398   0.015  13.767   1.013 -0.0773  0.0545 -0.1887
 9139W        W19399  16.047  10.006   2.433  0.1538  0.3054  0.0355
 9140W        W19400  14.461   9.091   2.204  0.0107 -0.0874 -0.0983
 9141W        W19401   1.946   5.773   0.130  0.5467  0.1016 -0.0233
 9142W        W19402   1.868   5.481   7.434  0.0137  0.0805 -0.1090
 9143W        W19403   9.547  11.852   0.268 -0.0479  0.1706 -0.2399
 9144W        W19404  14.037   0.806   1.142  0.0758  0.0166 -0.0346
 9145W        W19405  12.675  12.126   0.690  0.0464 -0.1488 -0.1447
 9146W        W19406   6.359  15.152   1.871 -0.1405  0.1100  0.0969
 9147W        W19407   1.562  10.895   8.228  0.0600 -0.2549  0.0143
 9148W        W19408   3.822  10.114   1.357  0.0734  0.0497  0.1016
 9149W        W19409  12.690  14.388   8.649 -0.2407 -0.4639  0.0570
 9150W        W19410   0.891   9.109   7.059  0.0606  0.2317 -0.1271
 9151W        W19411   1.372  12.691   7.250  0.0165  0.1104 -0.3334
 9152W        W19412   3.929   9.761   1.725 -0.2423  0.2349 -0.1214
 9153W        W19413   3.306   3.839   7.622 -0.0629  0.0206 -0.0423
 9154W        W19414  12.337  14.808   0.794 -0.0701 -0.0091 -0.2572
 9155W        W19415   4.095   9.665   7.458  0.3131  0.0032 -0.1479
 9156W        W19416   4.728   7.888   0.326  0.1517  0.0898 -0.0048
 9157W        W19417   4.550  12.678   8.569  0.2903 -0.0350 -0.3367
 9158W        W19418  14.973  13.951   6.350 -0.1118 -0.1029 -0.1128
 9159W        W19419   1.708  14.702   2.320 -0.1008 -0.0052 -0.1872
 9160W        W19420   5.889  11.339   1.859 -0.3269  0.0174  0.1035
 9161W        W19421   2.089  11.990   7.349  0.0299  0.0309  0.0597
 9162W        W19422   9.071   8.482   8.348 -0.0531 -0.0519  0.0174
 9163W        W19423   3.944  11.278   8.447  0.0347  0.0269 -0.1111
 9164W        W19424   9.993  13.465   1.440  0.0869  0.2568  0.0316
 9165W        W19425  13.535  14.315   8.127  0.2729 -0.1127 -0.0970
 9166W        W19426   5.111  11.063   0.269 -0.3012  0.2059  0.1018
 9167W        W19427   1.682  11.233   7.069  0.3685 -0.3441 -0.0942
 9168W        W19428   4.076   9.179   0.514 -0.2525 -0.0855  0.1357
 9169W        W19429   0.034  10.411   7.394 -0.0821  0.2041  0.1952
 9170W        W19430   4.619  11.055   1.734 -0.0393  0.3129  0.0227
 9171W        W19431   0.892  16.339   8.104 -0.1419  0.2386  0.1127
 9172W        W19432   2.982  15.930   0.974  0.0828 -0.1280  0.0853
 9173W        W19433   3.594  13.212   8.554  0.0353  0.0753  0.2673
 9174W        W19434   1.886  11.735   0.066 -0.1524  0.1213  0.0347
 9175W        W19435   3.065  16.093   0.078  0.0885  0.1788 -0.2205
 9176W        W19436  16.557  16.009   0.889 -0.2156 -0.2722  0.2588
 9177W        W19437   3.949   2.629   1.726 -0.3508 -0.1438  0.4298
 9178W        W19438   1.947  16.540   0.381  0.2173  0.0017  0.0062
 9179W        W19439   0.380  10.875   6.508 -0.1400  0.2566  0.1441
 9180W        W19440  15.284  12.122   2.464 -0.0372  0.2355  0.2289
 9181W        W19441  12.286  15.175   7.560  0.0683 -0.0100 -0.4270
 9182W        W19442   1.592  10.149   7.852  0.1671 -0.0960 -0.1486
 9183W        W19443   5.395  13.892   8.648 -0.3094  0.0361  0.2535
 9184W        W19444   5.760  13.112   1.047  0.1537  0.0664 -0.1469
 9185W        W19445   2.738  16.025   0.532  0.0516  0.4457 -0.0270
 9186W        W19446  11.897  14.562   8.060  0.1153 -0.0239  0.0241
 9187W        W19447   1.724   3.408   0.350  0.1814 -0.1023 -0.1529
 9188W        W19448   5.961  14.788   7.338  0.1297  0.3630  0.2022
 9189W        W19449  14.575   6.523   0.251 -0.0778  0.1649  0.1246
 9190W        W19450   2.148  11.047   0.306  0.2175 -0.1445 -0.0722
 9191W        W19451  10.296   9.548   7.596  0.0484  0.0063  0.1149
 9192W        W19452   1.551   1.350   6.558  0.0461  0.3081  0.1465
 9193W        W19453   1.528  15.591   0.357 -0.1577  0.0005 -0.2036
 9194W        W19454  10.606  11.210   0.178 -0.0730  0.1409 -0.3106
 9195W        W19455   5.201   9.144   1.725 -0.3633 -0.0239  0.3107
 9196W        W19456   4.013   7.135   1.783  0.0079  0.1640 -0.3024
 9197W        W19457   1.214  12.793   0.126  0.2308  0.3739  0.2375
 9198W        W19458  15.539   9.788   5.990  0.0084  0.3919 -0.0129
 9199W        W19459   2.243   7.361   6.293 -0.2197  0.1952 -0.0076
 9200W        W19460   6.295   4.683   8.016  0.0768 -0.0824 -0.0649
 9201W        W19461   6.548  10.736   1.600 -0.1091 -0.2120  0.1933
 9202W        W19462   1.572   9.148   8.589 -0.1388  0.3204 -0.2450
 9203W        W19463   7.726  11.972   1.010 -0.1868  0.0785 -0.1834
 9204W        W19464  15.498  10.632   0.199  0.1707 -0.2879  0.2064
 9205W        W19465   3.897   8.920   2.174 -0.1050 -0.2424  0.0404
 9206W        W19466  12.831  13.734   6.610 -0.2961  0.0420  0.2795
 9207W        W19467   4.149  14.784   1.439  0.2293 -0.0840 -0.2357
 9208W        W19468   4.520  12.088   0.643  0.4191  0.1454  0.2262
 9209W        W19469   0.052  10.678   7.984  0.3054 -0.1599 -0.1102
 9210W        W19470   1.305  11.364   1.752  0.0910  0.1567  0.0293
 9211W        W19471   4.277  15.524   0.143  0.2931  0.0286 -0.0347
 9212W        W19472   2.273  11.590   1.531 -0.1332  0.0283 -0.0091
 9213W        W19473   5.956   8.130   0.036 -0.0353 -0.3122  0.3168
 9214W        W19474   0.600  13.137   6.918  0.2441 -0.2177 -0.2412
 9215W        W19475   3.105   8.041   0.550 -0.0482 -0.1222 -0.0345
 9216W        W19476  10.565  10.117   2.232 -0.3144  0.1980  0.1185
 9217W        W19477   7.749   8.183   7.993 -0.1034 -0.0067 -0.4309
 9218W        W19478  15.186   9.071   1.751 -0.0542  0.0887  0.3309
 9219W        W19479   1.045  11.914   7.502  0.0235  0.1424 -0.3155
 9220W        W19480   2.839   8.288   7.086  0.1576 -0.1958 -0.0318
 9221W        W19481   6.386   4.389   7.599  0.0729 -0.2488  0.2427
 9222W        W19482   2.192  13.167   6.672  0.2014 -0.4754 -0.1646
 9223W        W19483   4.350  14.593   2.004 -0.1870  0.1417  0.1213
 9224W        W19484   1.537   7.505   0.567  0.0068 -0.1452 -0.0511
 9225W        W19485   0.881  12.573   0.726  0.1514 -0.0497 -0.6240
 9226W        W19486  15.875  11.322   1.221  0.2024  0.0699 -0.1371
 9227W        W19487  13.705   7.034   2.485  0.0061 -0.1644 -0.3488
 9228W        W19488   7.354  14.785   0.549  0.0042 -0.0654 -0.0937
 9229W        W19489   3.666  13.065   7.848 -0.3368  0.2456 -0.0315
 9230W        W19490   2.683  15.344   7.379  0.1381 -0.0722 -0.0693
 9231W        W19491   4.508   7.949   6.895  0.2444  0.0907  0.1422
 9232W        W19492  15.923  11.528   8.086  0.0969 -0.0577 -0.0198
 9233W        W19493   5.584   9.465   1.027  0.3051 -0.0475 -0.0313
 9234W        W19494  13.542   1.856   2.105 -0.2757 -0.1736 -0.1899
 9235W        W19495   2.694   1.155   0.203 -0.0382 -0.1898 -0.2540
 9236W        W19496   8.326   8.340   0.178 -0.2990 -0.2351 -0.0593
 9237W        W19497  15.261  11.611   2.354 -0.0027 -0.0532 -0.0728
 9238W        W19498  15.329  13.265   1.572 -0.1106 -0.2911 -0.3267
 9239W        W19499   4.742   3.004   8.644  0.0038 -0.2233  0.0595
 9240W        W19500   2.659  11.265   7.821  0.2638 -0.0096 -0.2189
 9241W        W19501   2.864   0.390   0.525  0.5110 -0.2305  0.1813
 9242W        W19502   0.393  10.628   1.512  0.0179  0.1293  0.1702
 9243W        W19503   9.380  11.718   1.280 -0.1579 -0.2605  0.1487
 9244W        W19504  15.061  13.524   6.689  0.0534 -0.1183  0.0240
 9245W        W19505   5.222   9.968   2.601 -0.0495  0.0159 -0.0011
 9246W        W19506  15.957   7.270   0.470  0.0322 -0.0295  0.1395
 9247W        W19507  14.599  12.842   0.790  0.2189  0.1384  0.0558
 9248W        W19508   4.417  13.706   7.609 -0.0302 -0.2136  0.1011
 9249W        W19509   5.010  10.179   8.498 -0.1188  0.2679  0.3028
 9250W        W19510   0.018  11.113   7.748  0.0489 -0.2177  0.0391
 9251W        W19511   6.845  10.723   0.290  0.0578  0.0326  0.0663
 9252W        W19512   1.502  12.673   1.064  0.1870 -0.0663 -0.0540
 9253W        W19513   3.089   7.412   7.424 -0.1193 -0.2188 -0.0561
 9254W        W19514  16.257  14.420   0.772 -0.1053 -0.3189 -0.1268
 9255W        W19515   1.014  12.480   2.356 -0.3052  0.0722  0.0651
 9256W        W19516  15.457   7.820   1.963  0.0342 -0.0247  0.0082
 9257W        W19517  15.218  12.789   7.743 -0.1756  0.0035  0.2414
 9258W        W19518   9.634   6.312   1.769  0.0406 -0.4416  0.2693
 9259W        W19519   3.019  11.482   8.234 -0.0675  0.2166  0.3731
 9260W        W19520   2.437   2.863   8.018  0.0747  0.0999 -0.1786
 9261W        W19521   4.832  10.851   0.652  0.1412 -0.0002 -0.4102
 9262W        W19522   6.689   0.501   2.244  0.3393  0.0377  0.1095
 9263W        W19523   8.442  16.491   1.059 -0.0721  0.1034  0.1161
 9264W        W19524   7.650   9.219   1.199  0.1582 -0.1273 -0.1492
 9265W        W19525   2.083  10.204   2.104  0.1006  0.0120 -0.0841
 9266W        W19526  11.426   3.541   1.719 -0.0171 -0.1512 -0.1188
 9267W        W19527   6.441  14.115   8.461  0.1107 -0.1311  0.1866
 9268W        W19528  15.656  14.284   6.856 -0.1539  0.0104 -0.0132
 9269W        W19529   3.052  12.284   6.770  0.0372  0.1002  0.1197
 9270W        W19530   8.607  10.263   0.786  0.1681  0.1029  0.0698
 9271W        W19531   7.672  13.024   1.087 -0.2433 -0.0433 -0.1627
 9272W        W19532  11.511   0.550   0.553  0.1212 -0.0664  0.0877
 9273W        W19533   5.943  13.631   1.238 -0.0908  0.1133  0.3524
 9274W        W19534   6.756  13.228   1.693 -0.1107  0.2094  0.0600
 9275W        W19535   6.104   4.206   1.203  0.1015  0.0708  0.2956
 9276W        W19536  14.071  11.298   1.952  0.1746 -0.3635  0.2081
 9277W        W19537  15.757  11.288   6.842 -0.2600 -0.0196  0.1779
 9278W        W19538   2.123  12.959   0.174  0.0154  0.2072  0.1102
 9279W        W19539   5.466  15.228   1.569 -0.0215 -0.1420  0.1155
 9280W        W19540   2.817   8.897   8.314  0.4093  0.1068 -0.1220
 9281W        W19541  10.081  14.991   1.475 -0.0720  0.1028 -0.1597
 9282W        W19542   6.725   9.984   0.798  0.2438 -0.1364 -0.0758
 9283W        W19543   9.057  13.755   7.369  0.1259 -0.3035  0.2614
 9284W        W19544   7.831  10.492   7.229  0.1402  0.0902 -0.3818
 9285W        W19545   6.216  13.957   7.862  0.2652  0.1310  0.0566
 9286W        W19546   3.139  12.130   1.224 -0.1443  0.2053  0.1213
 9287W        W19547   1.907   7.359   8.411 -0.1796  0.2288 -0.0766
 9288W        W19548   5.493  16.352   1.560  0.2159  0.1425 -0.1060
 9289W        W19549  11.093   1.215   8.499 -0.0171  0.0696  0.1230
 9290W        W19550   0.456  16.307   7.315  0.0361  0.0841 -0.3215
 9291W        W19551   2.467  11.967   1.827  0.0108 -0.0688 -0.0011
 9292W        W19552  15.429  12.476   2.163  0.3404 -0.0503  0.1212
 9293W        W19553   6.185  11.666   0.604 -0.0658  0.4741  0.1300
 9294W        W19554   1.682  15.040   8.013 -0.0351 -0.0663 -0.0017
 9295W        W19555   5.339   0.809   1.687  0.1114  0.0285 -0.0667
 9296W        W19556   8.205  12.781   8.452 -0.0353  0.1786 -0.2923
 9297W        W19557   6.701  10.915   1.129  0.0182 -0.0042 -0.2761
 9298W        W19558   7.261   8.586   0.001 -0.0555  0.1759 -0.1443
 9299W        W19559   0.094   9.733   1.378  0.1465 -0.3800 -0.0172
 9300W        W19560   5.917  11.363   8.313 -0.0833 -0.2051  0.0258
 9301W        W19561   4.257   7.664   0.140 -0.1776 -0.4011 -0.2499
 9302W        W19562   8.965  11.569   1.725  0.1156  0.1465  0.0182
 9303W        W19563   5.475   1.108   2.204 -0.1842  0.5693 -0.3193
 9304W        W19564   7.072  12.658   6.296 -0.1639 -0.2413 -0.0899
 9305W        W19565   7.650   5.300   0.542 -0.0719 -0.0652  0.0925
 9306W        W19566   7.585   7.535   0.866  0.0149  0.0605  0.3373
 9307W        W19567   7.130  16.024   8.450 -0.0655  0.1118  0.1024
 9308W        W19568   8.948  13.306   8.274  0.0611 -0.1113 -0.0371
 9309W        W19569   8.265  13.122   1.641  0.0012 -0.2129 -0.0506
 9310W        W19570   3.560  12.732   1.729  0.0077 -0.0874  0.0508
 9311W        W19571   8.692   1.032   6.914  0.0605 -0.1670  0.1317
 9312W        W19572   8.556   9.332   8.626  0.1703 -0.1812  0.2481
 9313W        W19573   2.582  16.255   1.727 -0.0513 -0.0887 -0.1613
 9314W        W19574   4.353   1.611   6.076  0.0077  0.1013  0.3334
 9315W        W19575  10.997   8.798   7.186  0.0277 -0.2239  0.2838
 9316W        W19576   9.143  12.409   8.296  0.0956 -0.2472  0.0514
 9317W        W19577   8.083  12.332   1.025 -0.1101  0.0148  0.1593
 9318W        W19578   6.597  13.526   7.753  0.3402 -0.4456  0.0901
 9319W        W19579   4.311  14.635   0.922 -0.0431  0.0639 -0.2522
 9320W        W19580  10.596  16.405   7.504 -0.0931  0.2893 -0.1018
 9321W        W19581   6.466  11.838   0.212 -0.0655 -0.1720  0.1790
 9322W        W19582   7.120   8.908   7.352  0.1487  0.1367 -0.2186
 9323W        W19583  10.224  15.744   7.979  0.2114 -0.5228  0.1357
 9324W        W19584   5.541   5.379   1.800  0.4731 -0.1644 -0.0363
 9325W        W19585   3.250   1.862   1.016  0.2833 -0.3227 -0.3468
 9326W        W19586  16.363  15.058   0.590 -0.0471 -0.0518 -0.3214
 9327W        W19587   5.795  14.121   1.265  0.0503  0.0798 -0.0758
 9328W        W19588   1.849  13.969   0.754  0.2713  0.2094  0.2913
 9329W        W19589  10.533   7.714   6.182 -0.1793 -0.0044  0.0008
 9330W        W19590   8.889   8.336   0.810  0.3608 -0.3047 -0.1762
 9331W        W19591   6.388   9.332   6.325 -0.3118  0.2480 -0.2896
 9332W        W19592  11.207   7.278   7.553  0.0009  0.1180 -0.1354
 9333W        W19593   4.922  14.474   2.684  0.2755  0.2525 -0.2851
 9334W        W19594   7.751  12.260   1.464 -0.1995  0.0820 -0.1340
 9335W        W19595   5.638  13.124   8.078  0.0236  0.6338  0.3581
 9336W        W19596   3.475   7.766   7.928 -0.0570  0.4382 -0.1423
 9337W        W19597   1.396  12.490   7.714  0.0024  0.3415  0.2070
 9338W        W19598   7.862  14.140   2.205  0.4086 -0.2267 -0.2372
 9339W        W19599   7.421  12.958   0.018 -0.1511  0.0842  0.4013
 9340W        W19600   6.260  12.398   0.341 -0.0382  0.0606  0.0470
 9341W        W19601  11.845   9.960   6.732  0.1418 -0.0861  0.2219
 9342W        W19602   7.039   9.121   7.865 -0.0366  0.3376 -0.0100
 9343W        W19603   6.245   8.487   1.295 -0.0164  0.1317 -0.4556
 9344W        W19604   9.752   1.641   0.868 -0.1752  0.1122 -0.0184
 9345W        W19605  10.021   2.894   2.014 -0.0300  0.0322  0.3602
 9346W        W19606   8.461   6.383   1.253  0.1769 -0.4420  0.0219
 9347W        W19607   1.407  14.779   7.203  0.2445  0.1493  0.0458
 9348W        W19608   7.763  13.034   1.606  0.0765 -0.2045  0.0063
 9349W        W19609   9.101   8.933   6.362  0.1254 -0.4561 -0.2341
 9350W        W19610   6.669   9.765   0.301 -0.1705  0.1730 -0.0142
 9351W        W19611   2.878  14.204   1.617  0.1067  0.1509 -0.0002
 9352W        W19612   5.496  11.825   6.933 -0.3638  0.1693  0.0181
 9353W        W19613   2.557   8.419   0.813  0.0845 -0.0730 -0.1746
 9354W        W19614   6.509  11.654   7.213  0.1725  0.0486  0.0364
 9355W        W19615   0.955  13.739   1.186  0.2530 -0.0878  0.1916
 9356W        W19616   3.830  11.602   6.991  0.0669  0.0748 -0.0129
 9357W        W19617   6.497   4.038   0.010 -0.0888 -0.0404  0.0687
 9358W        W19618   1.311  14.022   7.499 -0.0208  0.1357 -0.0545
 9359W        W19619   5.495  14.370   0.215 -0.3546  0.1191  0.1341
 9360W        W19620  12.918   0.167   7.533  0.1555 -0.1625  0.1132
 9361W        W19621   3.922  12.792   7.552 -0.1685 -0.2005  0.0288
 9362W        W19622   6.971  15.138   0.961  0.2454  0.2658 -0.1286
 9363W        W19623   3.092   0.963   0.955  0.0023  0.2315  0.0081
 9364W        W19624   2.819  13.843   8.498  0.2746  0.0890 -0.1033
 9365W        W19625   7.933  10.097   6.931 -0.1092  0.1159 -0.0807
 9366W        W19626   7.981   8.230   1.349  0.0642  0.1546 -0.0462
 9367W        W19627   4.988  16.368   1.028  0.1976 -0.0525 -0.0116
 9368W        W19628   2.000  14.340   1.056 -0.0965  0.0351  0.0441
 9369W        W19629   2.799  15.780   6.380 -0.0434  0.3137  0.1630
 9370W        W19630   1.316  12.209   7.155  0.2853 -0.1223  0.0951
 9371W        W19631   1.485  14.270   0.115 -0.0218 -0.1180 -0.1621
 9372W        W19632  14.020  12.770   0.684 -0.0929  0.0567 -0.0240
 9373W        W19633  10.214  15.352   6.800  0.0559 -0.2753 -0.0611
 9374W        W19634   1.096  14.910   0.584 -0.1014 -0.1037  0.2034
 9375W        W19635   7.069   3.923   0.952  0.0180 -0.0739 -0.1587
 9376W        W19636   5.545  11.269   0.077 -0.1248  0.0065 -0.3662
 9377W        W19637   4.209  14.244   0.638 -0.1147  0.0212  0.0254
 9378W        W19638   4.070   6.974   0.997  0.0167  0.2828  0.0836
 9379W        W19639  10.806  11.506   0.671  0.0761  0.0184  0.1941
 9380W        W19640  15.845   9.138   0.512  0.0476 -0.1016  0.1038
 9381W        W19641   7.723   8.245   1.877  0.0575  0.2871  0.0660
 9382W        W19642  14.041  13.225   2.066 -0.1022  0.0115  0.2245
 9383W        W19643   3.620  10.746   1.880  0.0460  0.2870  0.0987
 9384W        W19644   9.250   3.222   1.559 -0.0199  0.1469  0.3189
 9385W        W19645   6.806  12.377   5.944  0.0370  0.3922  0.0591
 9386W        W19646   5.202  14.322   7.851 -0.2279 -0.3310 -0.1716
 9387W        W19647  11.219  15.441   0.396 -0.1349 -0.0399  0.2336
 9388W        W19648   4.867  11.339   8.582  0.0588  0.1680  0.1599
 9389W        W19649   7.084  11.720   1.489 -0.0130 -0.0790  0.2395
 9390W        W19650  10.456  14.082   1.699 -0.1308  0.2327  0.1091
 9391W        W19651   2.352   8.996   1.736 -0.0651 -0.1329  0.3318
 9392W        W19652   5.635  11.811   7.487  0.0500  0.3166  0.1845
 9393W        W19653   4.417   7.715   0.692 -0.0202  0.0727 -0.1169
 9394W        W19654  10.203  10.764   7.889  0.2940 -0.2748 -0.1095
 9395W        W19655   9.555   8.197   6.619 -0.0539 -0.1998  0.1201
 9396W        W19656   0.816  12.433   7.940  0.4650  0.1263  0.5065
 9397W        W19657   5.926  14.177   0.326  0.3208 -0.1805 -0.1632
 9398W        W19658   5.869  11.080   6.629 -0.1415 -0.0082 -0.0251
 9399W        W19659   8.354   6.785   0.260 -0.2143 -0.0088 -0.1795
 9400W        W19660   5.168  13.933   8.136  0.1385 -0.2941  0.1139
 9401W        W19661   4.742  13.252   7.813  0.0514  0.1098 -0.1483
 9402W        W19662  15.450   6.712   8.362  0.0000 -0.0365  0.0594
 9403W        W19663   3.689  14.590   6.159  0.0486 -0.3036 -0.1746
 9404W        W19664   3.032  13.490   7.095  0.4696 -0.0071 -0.1805
 9405W        W19665   8.646   0.812   1.232  0.2305 -0.3370  0.2391
 9406W        W19666   8.415  12.403   8.217  0.0213 -0.0332 -0.1361
 9407W        W19667   9.983  16.347   1.371 -0.1824  0.0037  0.2468
 9408W        W19668   4.360  11.362   7.680 -0.0222 -0.0101  0.3058
 9409W        W19669   4.542   7.265   0.829 -0.1767 -0.0969  0.3197
 9410W        W19670  16.060  14.667   0.286 -0.0841  0.2067 -0.2088
 9411W        W19671   9.744   0.317   0.272 -0.1267 -0.0716 -0.2167
 9412W        W19672   3.673  14.469   7.114  0.0817 -0.2165 -0.2319
 9413W        W19673   1.040  16.079   1.669 -0.5719  0.0037 -0.1812
 9414W        W19674   0.546  14.812   8.602  0.1201  0.1080 -0.0936
 9415W        W19675  11.004  13.469   7.340 -0.0905 -0.0692 -0.1712
 9416W        W19676   6.436  14.719   1.681  0.0368 -0.0675  0.0468
 9417W        W19677   5.865  15.339   1.812 -0.1649 -0.0087 -0.0662
 9418W        W19678   8.865  11.064   1.489 -0.1696  0.4100 -0.0867
 9419W        W19679  11.068  11.925   7.518 -0.2625 -0.1720  0.0557
 9420W        W19680  10.024  11.491   1.440  0.2694  0.2845 -0.1488
 9421W        W19681   5.283   5.063   6.208  0.0024 -0.0364  0.0601
 9422W        W19682   2.935  11.078   8.478  0.2587  0.1633 -0.3245
 9423W        W19683   4.820   9.428   0.500  0.1109  0.0764 -0.1178
 9424W        W19684   7.539  10.443   1.375 -0.0558  0.0628  0.0441
 9425W        W19685   3.979   9.025   8.313 -0.3136 -0.3532 -0.3860
 9426W        W19686   2.199  16.065   0.492 -0.0222  0.1138  0.3588
 9427W        W19687   4.789   1.084   2.382 -0.0027  0.1436 -0.0490
 9428W        W19688   6.517  13.690   1.556 -0.2085 -0.3843  0.2820
 9429W        W19689   8.401   5.568   1.021  0.1085  0.0300  0.0673
 9430W        W19690   0.295   8.936   7.842  0.3482  0.1849  0.0178
 9431W        W19691   1.348  13.522   6.829 -0.1841  0.2761  0.0156
 9432W        W19692   2.462  14.698   1.012  0.0351  0.0155 -0.0934
 9433W        W19693   5.845   4.944   0.061 -0.1553 -0.1441 -0.2022
 9434W        W19694   5.702  10.171   6.022 -0.0215 -0.0761 -0.3000
 9435W        W19695  10.028  11.401   7.394 -0.1133 -0.3725 -0.2048
 9436W        W19696   4.943  11.134   6.661  0.1155  0.3466 -0.2111
 9437W        W19697   6.618  13.748   0.040 -0.2754 -0.0259  0.0082
 9438W        W19698   7.773  11.210   0.321  0.0250 -0.2274  0.3688
 9439W        W19699   6.611   8.942   8.241 -0.5948  0.5195 -0.1944
 9440W        W19700   8.417  11.673   7.666  0.0554  0.0735  0.0532
 9441W        W19701  13.653   8.554   1.233 -0.4981 -0.0208  0.0223
 9442W        W19702   2.247   8.599   0.473  0.0595 -0.0519 -0.1971
 9443W        W19703   6.238  13.927   7.358  0.1259  0.1239 -0.0052
 9444W        W19704   0.953  12.219   6.663 -0.2114 -0.0502  0.4508
 9445W        W19705   3.451  13.580   6.587  0.1583  0.1127 -0.1792
 9446W        W19706   8.357  16.263   6.768  0.1196  0.0960 -0.1592
 9447W        W19707   5.918  10.093   6.462 -0.0306  0.1424  0.2353
 9448W        W19708   0.421   0.320   1.384 -0.2299 -0.0571  0.0389
 9449W        W19709  12.454   8.608   1.042  0.0471 -0.1385 -0.1044
 9450W        W19710  10.661  11.645   6.798  0.0584 -0.2026  0.1002
 9451W        W19711   7.259  16.229   1.557  0.0515 -0.2086 -0.0517
 9452W        W19712   8.530  14.935   8.458 -0.2563 -0.2212  0.2061
 9453W        W19713  11.033  16.477   6.589  0.0880  0.0879 -0.1182
 9454W        W19714  12.364  14.614   0.347  0.0641 -0.2008 -0.1371
 9455W        W19715   4.435   6.934   8.168 -0.2575  0.0370 -0.0447
 9456W        W19716   8.363   2.545   0.744  0.0875 -0.0314  0.1674
 9457W        W19717   8.218   8.048   6.833 -0.1921 -0.0969 -0.0068
 9458W        W19718   6.135   5.971   8.126  0.0088  0.0636  0.2216
 9459W        W19719   6.910   2.648   7.699 -0.2371 -0.0962 -0.0238
 9460W        W19720   3.458   8.441   1.458  0.0822 -0.1284 -0.0856
 9461W        W19721   7.699   1.775   6.954  0.0581  0.0031  0.4955
 9462W        W19722  12.567  13.549   0.203  0.0830 -0.0030 -0.0880
 9463W        W19723  14.488   0.508   6.299 -0.1090  0.4813 -0.2510
 9464W        W19724   3.500   9.181   1.302  0.0662 -0.0599  0.1192
 9465W        W19725  14.035  10.055   1.798  0.1124 -0.0840  0.2604
 9466W        W19726   9.341  12.698   1.109  0.0141  0.1898 -0.1525
 9467W        W19727  11.940   1.944   7.915  0.5469  0.0681  0.0048
 9468W        W19728  10.039  12.368   6.933  0.1396 -0.0015 -0.3452
 9469W        W19729   6.385  10.421   8.352  0.2644 -0.0671 -0.0319
 9470W        W19730   9.100   7.923   0.608  0.0531  0.3502 -0.0881
 9471W        W19731  10.777   9.845   0.635  0.3399  0.1642 -0.3501
 9472W        W19732   8.614  10.668   1.081  0.3217 -0.1526  0.0714
 9473W        W19733   7.485  11.812   7.209  0.3360  0.1343 -0.0181
 9474W        W19734   8.283   9.681   8.068 -0.1614  0.0224 -0.0994
 9475W        W19735  11.482  13.094   0.556 -0.2491 -0.0708 -0.1817
 9476W        W19736   8.743   1.633   2.353  0.1723  0.0155  0.0153
 9477W        W19737  14.486  10.217   1.648  0.2003 -0.0769 -0.1345
 9478W        W19738  10.437  13.565   1.326 -0.2550 -0.0239 -0.0005
 9479W        W19739  12.541  14.336   1.546  0.2284  0.0171 -0.1534
 9480W        W19740   4.854  14.895   8.584 -0.2671  0.4324 -0.2959
 9481W        W19741   7.430   3.357   6.746  0.0862  0.0554 -0.1534
 9482W        W19742   8.372   7.313   0.441 -0.1280  0.0819  0.4198
 9483W        W19743   9.088  15.451   2.074 -0.0367  0.0805  0.2524
 9484W        W19744   9.323  12.664   0.549  0.2471 -0.0283 -0.0805
 9485W        W19745   7.060  16.532   8.370  0.0980 -0.0880 -0.0735
 9486W        W19746  14.957  10.458   0.136  0.1309  0.3904 -0.2337
 9487W        W19747   9.490   7.267   8.673 -0.2094 -0.0919  0.1166
 9488W        W19748   6.113   7.378   8.568 -0.1678 -0.0057  0.0566
 9489W        W19749   9.960   7.292   8.561 -0.1120 -0.0641  0.0889
 9490W        W19750  14.799   8.260   5.934  0.1889  0.0787  0.0991
 9491W        W19751  12.953  16.341   0.964  0.0434  0.0064 -0.3891
 9492W        W19752  12.138  13.045   6.850 -0.1245 -0.0965  0.0904
 9493W        W19753  11.345  15.176   1.313  0.4058 -0.2200 -0.1813
 9494W        W19754  14.408   1.604   6.290 -0.0496 -0.1298 -0.0116
 9495W        W19755   1.217   1.797   1.178  0.3247  0.0736  0.2060
 9496W        W19756   8.520  12.918   2.126  0.0746 -0.2240  0.1888
 9497W        W19757   5.413  12.519   0.592  0.2486  0.0737 -0.3388
 9498W        W19758   9.897  15.867   1.585  0.3023 -0.1429 -0.0624
 9499W        W19759  10.318  13.278   8.660 -0.2200  0.0435 -0.3255
 9500W        W19760  16.073  13.784   2.008  0.0425  0.3262 -0.0180
 9501W        W19761   9.492  14.638   0.739  0.1436 -0.0558  0.0198
 9502W        W19762   5.507   0.549   7.587 -0.0196 -0.2087 -0.2243
 9503W        W19763  10.595   0.793   1.129  0.2302 -0.1051 -0.1361
 9504W        W19764  11.707  16.117   0.099  0.0370  0.1130  0.1330
 9505W        W19765   3.883  15.677   1.702  0.1517 -0.1169  0.0695
 9506W        W19766   7.566  14.476   8.033 -0.0441  0.2132  0.0532
 9507W        W19767   8.898  11.094   0.596  0.4418 -0.2372 -0.1889
 9508W        W19768  10.980   0.106   7.561 -0.1044  0.1146  0.0757
 9509W        W19769   7.913  11.910   0.197  0.1672  0.2503 -0.0278
 9510W        W19770   5.116  11.008   1.556 -0.0295  0.0426 -0.3320
 9511W        W19771   5.799   0.045   1.232  0.1294  0.1318  0.1008
 9512W        W19772   6.751  10.612   2.074  0.1180 -0.1142  0.0799
 9513W        W19773   5.479  10.321   1.229 -0.0263  0.0764  0.0823
 9514W        W19774   8.548  13.183   8.563  0.1143  0.3923 -0.0166
 9515W        W19775  10.952  12.760   1.644 -0.2706 -0.2086 -0.0771
 9516W        W19776   6.692   5.973   0.411 -0.1228  0.0446  0.2784
 9517W        W19777  11.701   7.064   8.112  0.0555  0.0028  0.0021
 9518W        W19778   6.121   8.223   1.922 -0.3633 -0.1669  0.1262
 9519W        W19779  11.776   9.769   7.860  0.3637 -0.0431 -0.1082
 9520W        W19780   9.693  11.873   6.661 -0.0259 -0.2333  0.1660
 9521W        W19781  12.894  14.679   1.634 -0.0667  0.1045  0.0463
 9522W        W19782   0.998   9.741   6.342  0.1866 -0.0399  0.2141
 9523W        W19783   8.695   1.826   8.377 -0.1254  0.6270 -0.5379
 9524W        W19784   5.852   3.210   0.646 -0.0985  0.0226 -0.2544
 9525W        W19785   9.484  15.183   6.598 -0.1480  0.3799 -0.2486
 9526W        W19786  10.019  14.080   6.972 -0.0277 -0.1574 -0.0946
 9527W        W19787   4.129  12.284   8.257 -0.1314  0.0517  0.0967
 9528W        W19788  10.759  15.739   1.256  0.5378 -0.0574 -0.0724
 9529W        W19789  13.911  13.902   1.335 -0.0664  0.2666  0.0172
 9530W        W19790   9.655  13.087   1.277 -0.2254 -0.3507  0.2290
 9531W        W19791   8.098  15.038   0.107 -0.1117 -0.2411 -0.0625
 9532W        W19792  10.099  14.048   8.168 -0.2299  0.0615  0.0191
 9533W        W19793   9.668  15.558   0.623  0.1194 -0.1709 -0.4349
 9534W        W19794   8.098   9.173   0.974  0.3162 -0.0834 -0.1971
 9535W        W19795  12.124  12.450   7.435  0.0269 -0.2813  0.2999
 9536W        W19796   8.100  11.805   1.444  0.1254  0.1229 -0.3358
 9537W        W19797  10.421  13.892   0.435 -0.0542  0.0925 -0.1469
 9538W        W19798   6.954  14.661   8.314 -0.1028  0.1313  0.2540
 9539W        W19799   8.289  11.109   7.905 -0.0485 -0.0726 -0.2527
 9540W        W19800  10.532   9.387   8.075  0.5768 -0.0622 -0.2938
 9541W        W19801   5.962  12.191   6.965  0.3008 -0.0832 -0.3591
 9542W        W19802   4.923   6.951   2.811 -0.3556  0.0909  0.1529
 9543W        W19803   9.310   5.413   0.808  0.2421 -0.0095  0.0933
 9544W        W19804  14.094  15.475   8.416  0.1313 -0.0714 -0.2384
 9545W        W19805   3.669  12.760   0.797  0.0898 -0.1448  0.1709
 9546W        W19806   4.680  14.036   0.699  0.0045 -0.0365 -0.1684
 9547W        W19807   7.670  10.124   0.784 -0.1754  0.2703 -0.1459
 9548W        W19808   9.645   0.093   1.753  0.0366  0.3623 -0.0180
 9549W        W19809  11.899   7.995   8.302 -0.1109  0.0062 -0.2491
 9550W        W19810   7.292  12.151   0.786 -0.0267 -0.2101 -0.0097
 9551W        W19811   6.339   8.946   7.768 -0.1535 -0.1605  0.2669
 9552W        W19812   9.322  14.938   0.081  0.1165  0.2873 -0.4115
 9553W        W19813  13.928  10.276   0.301  0.1665  0.2389  0.0575
 9554W        W19814  12.814  14.011   7.497  0.1444 -0.0012 -0.0271
 9555W        W19815   1.793  15.820   1.280 -0.0964  0.1050 -0.1076
 9556W        W19816   1.096   5.757   7.120 -0.1534  0.3987 -0.0685
 9557W        W19817  10.928  14.034   1.367  0.2720  0.1550  0.0962
 9558W        W19818  11.902  11.789   7.293  0.0921  0.2371  0.0944
 9559W        W19819  11.001  14.535   0.355  0.3367  0.1502  0.0377
 9560W        W19820  12.654   1.403   7.051 -0.0224 -0.2357 -0.0983
 9561W        W19821  12.451  11.419   0.577  0.2187 -0.0029 -0.0925
 9562W        W19822  11.345  13.443   6.687  0.2620 -0.1732  0.0808
 9563W        W19823  10.192  16.138   7.606 -0.0677  0.0838 -0.0725
 9564W        W19824   8.795   9.744   0.140 -0.3869 -0.0544 -0.1719
 9565W        W19825  13.728  11.220   7.714  0.0494 -0.0263  0.0501
 9566W        W19826   8.471  10.112   0.183  0.0930 -0.1201 -0.0744
 9567W        W19827  13.399   8.212   7.139 -0.0752  0.3029 -0.2603
 9568W        W19828  10.149   1.227   0.452  0.3108  0.2102 -0.0548
 9569W        W19829   9.746   9.634   0.437  0.1365  0.5431  0.1713
 9570W        W19830   9.213  14.704   6.690  0.1665  0.3411 -0.0639
 9571W        W19831   8.644  14.008   7.422  0.1874 -0.1627 -0.0148
 9572W        W19832  10.816  13.611   0.560 -0.2199 -0.1520 -0.1589
 9573W        W19833  15.414  14.001   7.187  0.1031 -0.1835 -0.2779
 9574W        W19834   8.455  10.919   0.645  0.3068  0.0249  0.1388
 9575W        W19835   5.613  13.083   0.399 -0.3191 -0.0267 -0.0019
 9576W        W19836   9.197   8.483   7.731 -0.0140  0.1600 -0.0697
 9577W        W19837   6.927  13.576   2.016  0.0372 -0.0977  0.1513
 9578W        W19838  10.562   0.525   8.502  0.1755  0.0529 -0.1711
 9579W        W19839   8.721  13.281   0.337 -0.0486 -0.0680  0.1701
 9580W        W19840   7.604  11.313   7.562 -0.0647  0.2514 -0.1462
 9581W        W19841  14.549   1.317   8.422 -0.0688  0.0922 -0.3048
 9582W        W19842   4.782  14.532   0.725 -0.3883  0.2011  0.3327
 9583W        W19843   4.363  11.131   1.284  0.1262  0.1562 -0.3529
 9584W        W19844   3.155   9.013   0.709 -0.1142 -0.0813 -0.1131
 9585W        W19845  10.541  12.217   1.846  0.1488  0.1728  0.2190
 9586W        W19846  11.742  13.510   8.257  0.0070  0.1910  0.4873
 9587W        W19847  14.073  15.396   2.438  0.1311  0.2993  0.2855
 9588W        W19848   9.388  10.454   0.131 -0.0667 -0.2185 -0.2296
 9589W        W19849   8.460   8.576   0.606  0.1098  0.0585 -0.0140
 9590W        W19850   5.885  16.502   1.862 -0.0703 -0.3531  0.1101
 9591W        W19851  11.750  13.903   0.413  0.1037  0.1128  0.0269
 9592W        W19852   5.229  12.995   7.863 -0.1534 -0.1597  0.1813
 9593W        W19853   6.086  15.590   2.681 -0.0325 -0.0466 -0.0033
 9594W        W19854   9.506  12.480   7.916 -0.1406  0.0895  0.1809
 9595W        W19855   3.218  10.605   8.445 -0.3266 -0.0737 -0.1068
 9596W        W19856   8.475  15.797   7.401 -0.3536 -0.0956  0.0886
 9597W        W19857  11.642  13.860   6.295 -0.3966  0.1253 -0.0721
 9598W        W19858   3.829   5.075   7.049  0.0604  0.0280  0.2178
 9599W        W19859   4.512   0.919   0.686  0.0202  0.1472  0.2050
 9600W        W19860   7.100  10.428   1.026 -0.4300 -0.0958 -0.0218
 9601W        W19861  14.942   9.336   6.869 -0.0296 -0.0637 -0.2941
 9602W        W19862   9.119  12.881   7.795 -0.0309 -0.3687  0.2673
 9603W        W19863   7.739  13.934   6.506 -0.0493 -0.1766 -0.1284
 9604W        W19864  12.084   8.054   7.840 -0.1127 -0.2563  0.0906
 9605W        W19865  14.905   8.165   0.283  0.0595 -0.0640 -0.0469
 9606W        W19866   2.223  13.254   5.740  0.0525 -0.2001 -0.2447
 9607W        W19867   7.271   9.899   6.035 -0.2084 -0.0896  0.1320
 9608W        W19868   4.475   9.818   2.081  0.2771 -0.0482 -0.0598
 9609W        W19869  13.222   0.570   8.404 -0.0832 -0.0683  0.0751
 9610W        W19870  13.175   6.943   0.829 -0.2825  0.2324  0.0753
 9611W        W19871   5.653  13.561   8.333  0.1885  0.0354  0.0824
 9612W        W19872   8.455   1.378   7.225  0.1652  0.1572 -0.2411
 9613W        W19873   8.115  10.492   1.441  0.1016 -0.1715  0.0267
 9614W        W19874  10.489   9.705   1.080 -0.0469  0.3034  0.0197
 9615W        W19875   7.051  12.635   7.816 -0.2252  0.0141 -0.1485
 9616W        W19876  13.973   7.599   7.501 -0.2405 -0.1122  0.2215
 9617W        W19877   8.252   9.946   0.750 -0.0247 -0.2109 -0.3477
 9618W        W19878   9.638  14.289   1.079 -0.1389  0.2627  0.1423
 9619W        W19879  10.637   0.881   7.993 -0.0968 -0.0726 -0.1627
 9620W        W19880   4.547  14.207   0.246  0.1025  0.0493  0.0624
 9621W        W19881   3.929  14.937   8.115 -0.0752  0.2901 -0.0198
 9622W        W19882   8.122  14.254   6.685  0.1429 -0.1318 -0.2655
 9623W        W19883   7.144   1.155   0.655 -0.1154 -0.1245  0.2379
 9624W        W19884   6.964  11.087   1.664  0.0492  0.0119 -0.3572
 9625W        W19885   4.493   2.472   6.402 -0.0046 -0.0661  0.1947
 9626W        W19886   2.960  10.040   6.684  0.1044 -0.1527  0.0933
 9627W        W19887   9.929  14.448   8.446  0.3140 -0.0139 -0.2185
 9628W        W19888   9.562   0.747   7.416 -0.1359  0.2986 -0.0924
 9629W        W19889   7.448   9.291   8.213 -0.3967  0.0776 -0.2052
 9630W        W19890   6.165   1.254   7.389  0.1657  0.1248  0.0222
 9631W        W19891   5.977  12.151   7.873  0.0537 -0.0975  0.3763
 9632W        W19892   5.703  16.560   2.604 -0.0697 -0.0102 -0.3659
 9633W        W19893  11.207   6.378   8.594 -0.1571  0.1084 -0.3602
 9634W        W19894   8.949  15.300   7.565  0.0927 -0.0590  0.1890
 9635W        W19895   9.037  15.498   1.197  0.2899  0.0135 -0.1075
 9636W        W19896   9.690   0.219   8.508  0.0212  0.1826 -0.0748
 9637W        W19897   9.283   5.913   0.647  0.1403  0.3570 -0.0649
 9638W        W19898  11.580   9.332   1.974 -0.1171  0.1300  0.2930
 9639W        W19899   9.488  13.404   8.166 -0.0184  0.0356 -0.0431
 9640W        W19900   6.813  14.978   0.489  0.1113  0.0266 -0.0639
 9641W        W19901   1.089  15.398   6.322  0.1700  0.1345 -0.1535
 9642W        W19902   9.564  13.317   0.039  0.0879  0.1454  0.0593
 9643W        W19903  14.029   8.470   7.619  0.2420 -0.0087  0.0883
 9644W        W19904   7.104  13.745   8.492 -0.3840 -0.0366  0.3640
 9645W        W19905   5.484  11.220   0.566 -0.2010 -0.0227  0.2012
 9646W        W19906  11.974   1.834   6.378 -0.0068 -0.3749  0.1891
 9647W        W19907  10.963  12.498   7.699  0.1446  0.1490 -0.1974
 9648W        W19908  12.342  14.093   0.226 -0.4378  0.0806  0.2230
 9649W        W19909   0.135   9.440   7.209 -0.1782  0.2288 -0.0187
 9650W        W19910  15.955  10.841   2.933 -0.0957  0.2862 -0.2164
 9651W        W19911  15.235   2.672   6.648 -0.1611 -0.0719 -0.0316
 9652W        W19912   4.488   8.603   7.456  0.0024 -0.1722  0.1438
 9653W        W19913   8.771  12.820   8.203  0.2385  0.1487  0.3429
 9654W        W19914   0.559   1.292   1.154  0.2780  0.1014 -0.0333
 9655W        W19915  11.655  12.120   7.810 -0.1370 -0.4297  0.0084
 9656W        W19916   3.063   8.504   0.737 -0.2713 -0.0868 -0.1013
 9657W        W19917   9.300   1.539   7.600  0.2627 -0.0488  0.2742
 9658W        W19918   8.437   8.838   7.586  0.1509 -0.3424 -0.2338
 9659W        W19919   8.824  14.657   7.809  0.0611  0.0316 -0.1680
 9660W        W19920  11.313  11.755   1.916  0.0651  0.0468 -0.2220
 9661W        W19921   5.713  12.821   7.171 -0.0738  0.2090  0.1037
 9662W        W19922   0.972  12.872   8.290  0.1736 -0.3277  0.5230
 9663W        W19923  13.302  11.958   6.228 -0.3979 -0.1176 -0.1348
 9664W        W19924  11.365   2.367   8.444  0.1561 -0.1157 -0.0461
 9665W        W19925  15.594  12.237   1.707  0.0147  0.1301 -0.0043
 9666W        W19926   1.589   7.797   8.466  0.1249 -0.1615 -0.0114
 9667W        W19927   9.356  13.438   0.936 -0.1922  0.2844 -0.1273
 9668W        W19928   1.082   8.636   6.794 -0.0579 -0.1045  0.0270
 9669W        W19929  16.331  15.771   1.641  0.0521 -0.0853  0.1580
 9670W        W19930  13.944  11.194   0.984 -0.3075 -0.1376 -0.2087
 9671W        W19931  15.598   7.216   8.237 -0.1797  0.1900  0.0933
 9672W        W19932   6.596  10.878   8.515  0.1102 -0.0911  0.0289
 9673W        W19933  14.236  10.592   7.973  0.4516 -0.2075  0.0585
 9674W        W19934  12.119   7.943   7.140 -0.1422 -0.0964 -0.1829
 9675W        W19935   8.137  11.344   0.715 -0.0029  0.2301  0.2096
 9676W        W19936  11.179   1.689   0.924  0.0648 -0.0738  0.1032
 9677W        W19937  15.228   7.848   0.569 -0.1069 -0.1304  0.2990
 9678W        W19938  13.121  12.486   1.975 -0.0955  0.3608 -0.0646
 9679W        W19939  11.953  12.537   8.260  0.0447  0.0453 -0.1558
 9680W        W19940   7.433   8.139   0.172  0.0287 -0.1127  0.3229
 9681W        W19941   7.465   6.447   6.202  0.0006 -0.1295 -0.0727
 9682W        W19942  13.750   1.161   7.847  0.2000 -0.0614 -0.2881
 9683W        W19943  10.614  10.836   7.450 -0.1364 -0.0501  0.0868
 9684W        W19944  12.987   5.451   1.777  0.3407  0.2509  0.0160
 9685W        W19945  15.878   2.404   2.667  0.1999  0.1733 -0.1183
 9686W        W19946  12.930   7.225   8.628 -0.1660  0.2489 -0.2341
 9687W        W19947  10.976  12.834   8.097 -0.0546 -0.0812 -0.0397
 9688W        W19948  14.273  14.153   7.578 -0.2990  0.2075 -0.0826
 9689W        W19949  13.575   1.352   0.685 -0.1475 -0.0372 -0.0783
 9690W        W19950  10.524  13.128   7.142  0.0570 -0.0471  0.1391
 9691W        W19951  13.903   5.872   0.614 -0.2095 -0.2176  0.1870
 9692W        W19952   8.690  13.631   6.994  0.2303  0.0155  0.2529
 9693W        W19953   5.691  15.313   1.104  0.0308  0.0696 -0.0788
 9694W        W19954  15.077   6.898   0.743  0.0824  0.0176  0.2426
 9695W        W19955   2.518   4.970   1.472  0.1024 -0.2409  0.0332
 9696W        W19956  14.163   0.974   8.137  0.1855 -0.0765  0.0417
 9697W        W19957  12.759   8.508   0.127 -0.2020 -0.2441 -0.1883
 9698W        W19958  11.808   6.530   8.017  0.0046 -0.2808  0.1357
 9699W        W19959   6.212   8.784   6.888 -0.1682  0.0818 -0.3762
 9700W        W19960  12.500  10.407   0.164  0.2564  0.0696  0.0751
 9701W        W19961   3.831  13.163   0.469 -0.1501  0.2120  0.0061
 9702W        W19962  15.600  11.577   0.557 -0.3289 -0.1841  0.0805
 9703W        W19963  13.168   0.211   6.400 -0.4866 -0.1112 -0.3139
 9704W        W19964  14.420   4.926   0.707 -0.0829  0.0636  0.0165
 9705W        W19965  13.595   9.839   1.787  0.0617 -0.0057  0.3954
 9706W        W19966  13.083  14.851   2.108  0.1292 -0.1266 -0.0272
 9707W        W19967  10.293  15.772   1.113  0.0150 -0.2491  0.0237
 9708W        W19968  15.102   8.360   6.840  0.0905 -0.2115 -0.1728
 9709W        W19969   0.523  12.018   6.559 -0.0420 -0.1289 -0.2925
 9710W        W19970  12.974  10.588   7.436 -0.1155 -0.1838  0.1220
 9711W        W19971   9.946  11.553   0.251  0.1052 -0.0955  0.1888
 9712W        W19972  10.888  10.404   1.912 -0.2758 -0.1493  0.0346
 9713W        W19973  14.176   0.590   1.602  0.0310 -0.0045  0.0445
 9714W        W19974  14.528  10.979   7.461  0.1575 -0.0030 -0.0529
 9715W        W19975   4.235  12.516   0.199  0.2743 -0.0591  0.1685
 9716W        W19976  12.473   7.945   1.596  0.1136 -0.2770 -0.2000
 9717W        W19977   9.936   8.566   1.700 -0.0800  0.0825  0.1116
 9718W        W19978   7.546  13.958   0.024 -0.1037  0.2032 -0.2674
 9719W        W19979  13.372  14.706   7.318 -0.0845  0.0626  0.1101
 9720W        W19980   1.455  11.749   2.584  0.2639  0.1656 -0.0736
 9721W        W19981   9.350  10.475   7.297 -0.0649  0.0943 -0.1353
 9722W        W19982   8.895  12.563   2.303 -0.1939  0.0568 -0.1364
 9723W        W19983  13.570  16.394   8.114  0.1184  0.0688 -0.0836
 9724W        W19984  12.226  10.890   2.290  0.0500  0.2770 -0.0693
 9725W        W19985  12.709   4.179   8.027  0.2563  0.1257  0.2063
 9726W        W19986   6.665  11.565   0.676 -0.0732  0.1338 -0.1052
 9727W        W19987  13.030   1.568   6.198 -0.1544 -0.1950  0.1459
 9728W        W19988   8.490  14.989   7.536 -0.0813  0.2924  0.0211
 9729W        W19989  14.966   9.564   1.233  0.2110  0.1231 -0.0268
 9730W        W19990  10.686  13.966   8.142  0.0383 -0.0542 -0.1523
 9731W        W19991  12.751  15.805   8.072 -0.0353 -0.3553  0.1418
 9732W        W19992   0.660   8.326   7.348 -0.1364 -0.0104  0.0164
 9733W        W19993  12.580  10.277   1.167 -0.2262 -0.3473 -0.1849
 9734W        W19994   7.450  14.462   1.279 -0.0728 -0.0609 -0.2660
 9735W        W19995  11.821  14.023   8.057 -0.0308  0.1876  0.2059
 9736W        W19996  15.961  11.998   1.133 -0.1766 -0.3890 -0.4369
 9737W        W19997  13.751   7.555   8.445  0.3030  0.0050  0.0419
 9738W        W19998  13.655  16.469   2.519  0.3263 -0.0521  0.2598
 9739W        W19999  11.982  16.089   2.475 -0.2973  0.1125 -0.0207
 9740W        W20000  12.591   0.644   8.392 -0.0044 -0.4724 -0.1742
 9741W        W20001  13.545  16.415   0.419  0.2123 -0.0391 -0.0899
 9742W        W20002  13.169  10.669   1.951  0.2532 -0.0488 -0.0664
 9743W        W20003   8.072   8.469   7.698  0.0689 -0.2446  0.0670
 9744W        W20004  14.154  11.362   7.375  0.2938  0.1094 -0.0021
 9745W        W20005  13.195   9.491   6.545 -0.1502  0.1494 -0.1046
 9746W        W20006   9.553  12.821   0.057 -0.1747  0.1736 -0.2444
 9747W        W20007   6.073  15.212   0.264 -0.0877 -0.2218 -0.0924
 9748W        W20008   7.963   9.205   6.783  0.1755 -0.2912  0.1482
 9749W        W20009  14.972   0.530   7.379  0.0179 -0.0340  0.2088
 9750W        W20010   8.423  11.161   2.369 -0.0531 -0.0336 -0.2081
 9751W        W20011  10.961   8.464   6.751  0.1797  0.3196  0.2933
 9752W        W20012   9.313   5.914   0.124 -0.0765 -0.2117  0.0485
 9753W        W20013   6.408   7.226   6.664 -0.0687  0.1339  0.0864
 9754W        W20014  13.089   8.621   7.991  0.1425 -0.1173 -0.0109
 9755W        W20015  11.268  15.404   0.900 -0.0584  0.0249 -0.4629
 9756W        W20016  11.466  14.791   7.915 -0.0870 -0.1120 -0.0649
 9757W        W20017  11.780   7.959   2.074 -0.2100  0.0395  0.0133
 9758W        W20018  11.776   7.541   6.597  0.4151 -0.0156  0.3775
 9759W        W20019  11.083  14.496   1.369  0.0116  0.0963 -0.0527
 9760W        W20020   7.512   9.070   7.682 -0.2852 -0.0682 -0.1614
 9761W        W20021   8.186  15.181   8.272  0.0828 -0.2827  0.5562
 9762W        W20022   9.036   2.692   0.909  0.1431 -0.1574 -0.0370
 9763W        W20023  15.327   4.907   0.162  0.1183  0.2503 -0.5392
 9764W        W20024  10.746  14.879   0.142  0.0903 -0.1839  0.2508
 9765W        W20025  13.934  13.930   2.764 -0.0966 -0.1220 -0.1293
 9766W        W20026  12.469  14.329   8.184  0.0527 -0.1122 -0.0325
 9767W        W20027   9.072  15.384   6.556  0.2076  0.0380 -0.0029
 9768W        W20028  11.461  14.036   1.420 -0.0792 -0.4900 -0.0701
 9769W        W20029  14.109   8.552   0.968  0.0021  0.0569 -0.0407
 9770W        W20030  14.316   0.047   6.613  0.0041  0.0114 -0.0312
 9771W        W20031  14.930  12.292   2.784  0.1789 -0.2822  0.2338
 9772W        W20032   7.539  11.908   6.537  0.1166  0.3526  0.1046
 9773W        W20033  14.450   7.542   7.539 -0.1255  0.0228 -0.0421
 9774W        W20034  10.624  12.998   7.731 -0.0084 -0.0770  0.0431
 9775W        W20035   6.370   4.813   1.209  0.0366 -0.3382 -0.1505
 9776W        W20036   9.252   8.675   0.930 -0.0509 -0.0828 -0.1285
 9777W        W20037  11.516   9.379   8.662 -0.0181 -0.0174 -0.0275
 9778W        W20038  10.154   5.415   1.204 -0.1902 -0.0045 -0.1459
 9779W        W20039  11.660  14.755   2.058 -0.0716 -0.1392 -0.1184
 9780W        W20040  10.898  14.018   0.223  0.1854  0.1760 -0.0413
 9781W        W20041  16.475   0.159   1.264  0.2698  0.3209  0.0442
 9782W        W20042  10.985  12.470   0.340  0.1665  0.2946 -0.1773
 9783W        W20043   7.031  13.135   6.572  0.3091  0.2419 -0.0828
 9784W        W20044   9.541  10.747   7.812  0.2902 -0.3815 -0.2667
 9785W        W20045   8.104  15.656   8.408 -0.2239  0.1448  0.0465
 9786W        W20046  13.451  13.536   8.597  0.1038 -0.0629 -0.3427
 9787W        W20047  10.240   6.249   7.600  0.2292 -0.0501 -0.1178
 9788W        W20048  10.115   9.380   1.131 -0.3052  0.1983  0.1186
 9789W        W20049  14.903   9.124   0.122  0.0626  0.2135  0.0382
 9790W        W20050  15.108   2.447   0.284  0.2378 -0.1384 -0.0444
 9791W        W20051  15.513  15.754   1.058 -0.2826 -0.1832 -0.1436
 9792W        W20052  11.992  12.341   0.063  0.0232  0.1920 -0.2490
 9793W        W20053  12.966   0.386   6.981  0.2322  0.2181  0.1224
 9794W        W20054   9.794   6.094   7.656  0.2597  0.1484  0.1202
 9795W        W20055   6.753   2.273   0.099  0.1333  0.2833  0.1303
 9796W        W20056   6.600  15.064   1.354  0.2474  0.0462 -0.1137
 9797W        W20057   1.359  14.195   0.954  0.0990  0.0686 -0.2793
 9798W        W20058  14.361  12.233   2.245 -0.0021  0.1997  0.1387
 9799W        W20059   7.411  13.449   1.840  0.1353 -0.2094  0.0274
 9800W        W20060   3.503  13.290   0.832 -0.0613 -0.0738 -0.0288
 9801W        W20061  10.229  10.206   8.207  0.2785 -0.0154 -0.1108
 9802W        W20062   0.379  12.632   0.463  0.0648  0.3051 -0.0825
 9803W        W20063  14.887   2.292   6.800  0.0483  0.1514 -0.2537
 9804W        W20064  14.712  10.728   0.614 -0.2695  0.3906  0.0785
 9805W        W20065  13.694  11.730   7.812  0.0090  0.0163 -0.1018
 9806W        W20066   8.877   5.769   0.884  0.1815  0.0470 -0.0136
 9807W        W20067  15.080   7.978   2.260  0.1301  0.1179 -0.0553
 9808W        W20068  15.921   6.717   0.353 -0.1183  0.1469  0.0267
 9809W        W20069  14.248  10.438   0.637 -0.1445 -0.1491  0.0630
 9810W        W20070  13.629   1.340   1.789  0.1320 -0.0206  0.0200
 9811W        W20071  14.214  11.064   1.486 -0.0350 -0.0442  0.2525
 9812W        W20072  14.846  11.944   7.345 -0.2505 -0.3501  0.0252
 9813W        W20073  14.136  14.880   0.563  0.1910  0.1783  0.2342
 9814W        W20074  13.504  10.463   0.808 -0.0805  0.2018 -0.2239
 9815W        W20075  14.429  12.443   1.478 -0.0110 -0.2231 -0.0493
 9816W        W20076   3.165   7.177   0.973 -0.0182 -0.2491 -0.0684
 9817W        W20077  13.038  10.420   8.621 -0.0037  0.4025  0.2447
 9818W        W20078   6.053  15.676   6.464 -0.2861  0.3438 -0.2840
 9819W        W20079  15.745  10.757   7.795 -0.0711  0.1774  0.2064
 9820W        W20080  13.802  12.283   0.903  0.1212  0.3788 -0.0558
 9821W        W20081  13.923  12.550   7.172 -0.1791  0.3887  0.3318
 9822W        W20082  16.283  10.671   6.990 -0.2215  0.2277  0.0563
 9823W        W20083  10.949   0.717   0.682 -0.1562 -0.1004  0.2623
 9824W        W20084  15.599  13.444   8.419 -0.1977  0.0967  0.0002
 9825W        W20085   4.046   0.155   1.349  0.1580  0.0492 -0.0776
 9826W        W20086   1.994  11.095   7.424  0.1997 -0.0553  0.0868
 9827W        W20087  10.141  12.808   6.827 -0.0935  0.0589  0.1646
 9828W        W20088   8.891   8.584   6.718 -0.1385 -0.0633  0.0335
 9829W        W20089  11.547   2.069   2.495 -0.4423  0.1708  0.2146
 9830W        W20090   8.012   9.058   1.492 -0.2138 -0.4916  0.1341
 9831W        W20091   7.254  13.554   2.390  0.0095 -0.2919 -0.0295
 9832W        W20092  12.014   0.560   7.368 -0.0571 -0.2972  0.1214
 9833W        W20093  13.369  15.960   6.936 -0.0287 -0.1870  0.0025
 9834W        W20094   9.415  14.530   7.098 -0.2394 -0.1947  0.0667
 9835W        W20095  12.551  13.942   8.487  0.0819  0.0878  0.1166
 9836W        W20096  11.631  12.628   0.707 -0.1083  0.1102  0.2263
 9837W        W20097   9.548  14.324   7.666  0.0093 -0.0073  0.2227
 9838W        W20098   0.428  15.413   2.041 -0.0427 -0.0426  0.0465
 9839W        W20099   9.478  16.105   1.409  0.0580 -0.0938  0.2933
 9840W        W20100  15.153  16.336   0.913  0.0688 -0.0638 -0.0260
 9841W        W20101   8.764   7.030   0.296 -0.1239 -0.2032  0.0381
 9842W        W20102   8.011   4.898   7.786  0.2575  0.2334  0.1009
 9843W        W20103   4.544  13.026   6.821  0.0782  0.0829 -0.2528
 9844W        W20104   5.388  11.927   7.970 -0.3579  0.2331  0.0061
 9845W        W20105  14.023  11.262   0.213 -0.1965 -0.1278 -0.2736
 9846W        W20106  12.875   9.846   1.256 -0.0480  0.0667 -0.2258
 9847W        W20107  16.243  10.787   7.540 -0.0189 -0.0052 -0.1354
 9848W        W20108  14.159  14.407   6.306  0.1977  0.1371  0.3250
 9849W        W20109   9.834  11.184   6.382 -0.0248  0.2937  0.1004
 9850W        W20110  10.024  15.395   8.295  0.0056  0.1980 -0.3417
 9851W        W20111  13.323   3.131   1.605  0.1184  0.1673  0.1095
 9852W        W20112  11.699  12.296   1.765 -0.1327 -0.1336 -0.1993
 9853W        W20113   5.297  13.618   7.090  0.1471 -0.1139 -0.1144
 9854W        W20114  10.969   0.404   6.642 -0.2130 -0.0305 -0.1332
 9855W        W20115  14.889  11.252   0.590  0.1812 -0.2362 -0.2080
 9856W        W20116  12.038   0.901   2.332 -0.2874  0.1171 -0.1445
 9857W        W20117   2.940  10.863   0.653 -0.2161  0.1521 -0.0892
 9858W        W20118  13.939  12.189   6.791 -0.3164  0.1082  0.2547
 9859W        W20119  13.127   8.945   6.762 -0.0580  0.3384 -0.0039
 9860W        W20120   0.456  12.761   7.202 -0.1374 -0.0483 -0.1613
 9861W        W20121   1.343  10.574   0.392 -0.0981 -0.0316 -0.4223
 9862W        W20122  15.576   0.379   1.357  0.2452 -0.0699 -0.1277
 9863W        W20123  16.266  11.520   1.424 -0.0173 -0.1829  0.1087
 9864W        W20124  15.095  14.723   7.766 -0.2686 -0.0851 -0.1090
 9865W        W20125   6.080  13.175   0.484  0.1018  0.1650 -0.0506
 9866W        W20126   4.660  11.264   0.351 -0.1521  0.2190 -0.0686
 9867W        W20127   1.356   7.752   1.591 -0.0951  0.1511 -0.0716
 9868W        W20128   3.614  13.620   6.106  0.2718  0.0847 -0.1879
 9869W        W20129  11.491  13.157   7.378  0.0419  0.0863  0.1789
 9870W        W20130   2.840  10.396   0.625  0.1093 -0.1077  0.0546
 9871W        W20131  13.062   0.784   1.462 -0.1540 -0.1158 -0.1552
 9872W        W20132   9.168   9.478   1.594 -0.1984 -0.0419  0.0997
 9873W        W20133  12.998  11.521   2.080  0.1891 -0.2436 -0.0269
 9874W        W20134  13.975   8.341   8.121  0.1714  0.1120 -0.1161
 9875W        W20135  13.261   1.330   7.849 -0.1062 -0.0750  0.0398
 9876W        W20136  15.568  16.135   8.662 -0.2497  0.1940  0.0127
 9877W        W20137  13.178  12.309   8.448 -0.0628  0.3147 -0.2669
 9878W        W20138  14.607  11.559   0.247  0.2140 -0.4009  0.1116
 9879W        W20139  11.436  12.321   7.445 -0.1215 -0.0097  0.0418
 9880W        W20140  10.452   2.074   6.382  0.2753 -0.2779 -0.0606
 9881W        W20141   2.102  13.133   1.730  0.2303 -0.3347  0.3318
 9882W        W20142   1.057  11.371   6.229  0.0600 -0.1055 -0.2136
 9883W        W20143  10.352   9.720   8.515 -0.0574  0.2298  0.1940
 9884W        W20144  13.755  13.601   2.380 -0.0185 -0.0774  0.2064
 9885W        W20145   1.477   0.548   7.026 -0.1276 -0.0045  0.2144
 9886W        W20146  12.399  13.478   8.461  0.3416  0.0374  0.0467
 9887W        W20147  12.908   0.613   1.952 -0.0501  0.3918 -0.0888
 9888W        W20148  14.531  13.513   0.248 -0.1065 -0.2809 -0.1782
 9889W        W20149  12.519   8.919   1.562 -0.1101  0.1022 -0.0933
 9890W        W20150  12.107  10.353   6.905  0.0289 -0.0853  0.0997
 9891W        W20151   1.583   9.955   7.353  0.0010  0.0587  0.2294
 9892W        W20152  15.218  12.317   0.454 -0.1844  0.5391  0.0789
 9893W        W20153   8.347  11.639   1.063  0.1333 -0.0967  0.2856
 9894W        W20154   2.149   7.962   8.280  0.1752  0.3790 -0.1494
 9895W        W20155  13.220  15.079   7.926  0.1618  0.1870  0.4038
 9896W        W20156  14.956   1.714   1.851 -0.1487  0.2098  0.0677
 9897W        W20157  11.496   1.307   1.787  0.0113 -0.2025  0.1576
 9898W        W20158  12.687  14.333   2.866 -0.1271  0.0372 -0.0735
 9899W        W20159  11.602  11.944   1.006 -0.0197 -0.0976  0.1010
 9900W        W20160  14.473  10.713   8.424  0.0719  0.2081 -0.3264
 9901W        W20161   7.244  15.779   7.977  0.0372  0.0408 -0.0318
 9902W        W20162  12.664  13.130   1.085  0.1901  0.1414 -0.2158
 9903W        W20163   5.055   6.431   8.660  0.0495 -0.3128  0.0370
 9904W        W20164  12.088  13.997   2.142 -0.1163  0.0908 -0.0797
 9905W        W20165   3.965  14.783   7.436  0.0302 -0.1872  0.0894
 9906W        W20166   4.303  10.601   7.583 -0.2513 -0.1140  0.1174
 9907W        W20167  14.589   6.412   1.251  0.3077  0.4001  0.1823
 9908W        W20168  15.031  11.860   8.030 -0.1608 -0.2035 -0.1585
 9909W        W20169  13.409  13.978   2.228  0.3110  0.3216  0.4895
 9910W        W20170   7.940  16.405   1.805 -0.1242 -0.1888 -0.0198
 9911W        W20171   0.870   7.457   7.445  0.0739 -0.0938  0.0639
 9912W        W20172  11.904   3.401   0.798  0.0062 -0.1290 -0.1139
 9913W        W20173   5.243  14.795   1.580 -0.0331  0.0313 -0.3338
 9914W        W20174   6.128  11.201   7.212  0.2367 -0.2047 -0.1222
 9915W        W20175   1.892  11.552   1.166  0.1663 -0.2270  0.0533
 9916W        W20176   8.502  10.006   7.107  0.3039 -0.0532 -0.1382
 9917W        W20177  10.219  12.399   2.146 -0.0557 -0.1799 -0.0155
 9918W        W20178  10.453  10.327   7.455  0.2441  0.0200  0.0373
 9919W        W20179   0.480  15.027   7.483  0.1115  0.1159  0.1699
 9920W        W20180   6.157  10.690   0.669  0.2257  0.1389 -0.1236
 9921W        W20181   1.772   0.130   8.293  0.2426 -0.1479 -0.0325
 9922W        W20182   4.319  10.642   1.098  0.0439 -0.1022 -0.2347
 9923W        W20183  15.209   5.834   0.713 -0.1010  0.2787  0.1477
 9924W        W20184   2.109   7.325   0.916 -0.0467  0.0830 -0.0399
 9925W        W20185   6.931   8.563   0.821 -0.0549 -0.1109 -0.3615
 9926W        W20186  16.377   9.814   6.471 -0.4594 -0.2923 -0.0126
 9927W        W20187   9.995   1.574   1.973 -0.0511 -0.0243  0.0879
 9928W        W20188  11.861  14.359   0.285  0.2862 -0.3135 -0.2418
 9929W        W20189   1.452   8.243   1.576 -0.0706 -0.3176  0.5229
 9930W        W20190  12.999   9.787   2.489 -0.1748  0.1102  0.1929
 9931W        W20191   2.546  10.700   7.062  0.4267 -0.2350 -0.1385
 9932W        W20192  12.658  11.839   7.062  0.0127  0.0111 -0.1759
 9933W        W20193  10.160   7.800   5.845 -0.1135 -0.1224 -0.2342
 9934W        W20194   6.469  11.229   0.284 -0.0488  0.2720  0.3099
 9935W        W20195  11.582  14.069   7.647  0.2973 -0.3069 -0.2752
 9936W        W20196  13.465  12.512   1.220 -0.0600  0.1073 -0.0203
 9937W        W20197   4.328  11.543   0.560  0.2141 -0.2448  0.1477
 9938W        W20198  15.931   9.875   7.819 -0.0950 -0.0162 -0.1370
 9939W        W20199   0.013  12.801   7.504  0.0935 -0.0051  0.3220
 9940W        W20200  13.407  14.172   7.284 -0.1010 -0.1222 -0.0077
 9941W        W20201  14.577   8.944   8.484  0.4284 -0.2038  0.0895
 9942W        W20202   0.133  10.977   1.796  0.1076  0.3167 -0.0768
 9943W        W20203   9.500   9.193   8.426  0.1727  0.1265 -0.0512
 9944W        W20204  16.169  13.616   7.779  0.1216 -0.1529  0.0825
 9945W        W20205  14.107  14.338   1.087 -0.0101  0.2593 -0.2057
 9946W        W20206  12.567  11.245   2.028 -0.2616 -0.2715  0.0063
 9947W        W20207   0.755  14.555   8.130 -0.2601  0.1369  0.2644
 9948W        W20208   0.046  12.497   8.368  0.0155 -0.1197  0.3174
 9949W        W20209  16.463   7.912   2.446 -0.1958 -0.1847 -0.1179
 9950W        W20210  12.332  13.403   1.533 -0.0500  0.2855 -0.0909
 9951W        W20211   8.766   8.029   1.567  0.1434  0.0935 -0.2462
 9952W        W20212  14.097  15.644   1.897 -0.1483  0.2406  0.1700
 9953W        W20213  15.244  10.024   1.072  0.0209  0.0182 -0.0201
 9954W        W20214   8.930  10.185   0.435 -0.1531  0.1809 -0.0793
 9955W        W20215   3.520  12.028   7.047  0.1862 -0.0378  0.1503
 9956W        W20216   9.362   7.199   1.647  0.0002 -0.0814 -0.1732
 9957W        W20217  14.383   2.171   6.590  0.2541 -0.0422  0.0491
 9958W        W20218  12.676  15.512   1.471  0.2394  0.0531 -0.4471
 9959W        W20219   0.883  14.950   7.228  0.0680  0.2316 -0.1074
 9960W        W20220  13.620  16.463   7.625 -0.0177 -0.3403  0.2114
 9961W        W20221   2.399   5.305   1.845 -0.1460 -0.0821  0.1792
 9962W        W20222  13.169  11.052   0.231  0.1562  0.2780  0.1900
 9963W        W20223   2.478  13.447   7.062 -0.3398 -0.1950  0.2486
 9964W        W20224   1.699  14.278   7.156 -0.0355 -0.2457  0.1365
 9965W        W20225  10.768   7.485   6.613 -0.1761  0.0853 -0.0076
 9966W        W20226  16.254  11.183   6.865  0.0117 -0.0281  0.0426
 9967W        W20227  14.767  12.083   1.420 -0.2022  0.4656  0.3434
 9968W        W20228   9.348  13.845   7.767 -0.3157  0.2246 -0.0112
 9969W        W20229  13.193   6.395   6.874 -0.3243 -0.0743  0.0549
 9970W        W20230   5.972   8.569   0.888 -0.0050 -0.0048 -0.1935
 9971W        W20231  13.545  10.690   1.608  0.0107  0.1880 -0.0344
 9972W        W20232  13.017  14.157   1.512 -0.0138  0.0572  0.2682
 9973W        W20233   4.795  13.014   7.287 -0.1228  0.1235 -0.0491
 9974W        W20234  15.267   3.600   6.366 -0.0832  0.0486 -0.1413
 9975W        W20235   2.185  13.234   0.624  0.3106 -0.1154  0.0993
 9976W        W20236  15.321   2.438   7.024  0.2258 -0.1019  0.0043
 9977W        W20237  16.552  14.282   1.210  0.0103 -0.0849 -0.1485
 9978W        W20238  16.449  11.029   0.529  0.0830 -0.0246 -0.2907
 9979W        W20239  12.546  15.064   1.703 -0.0934 -0.2327  0.1661
 9980W        W20240  15.195  12.406   1.255 -0.2849 -0.0987  0.0162
 9981W        W20241   1.514  10.057   1.193  0.1062  0.1921 -0.0528
 9982W        W20242  11.982   5.506   1.160  0.0898  0.0772 -0.1974
 9983W        W20243  14.485  11.522   1.652 -0.2556 -0.4100  0.2289
 9984W        W20244  13.185  16.131   0.571 -0.0214  0.1363 -0.1103
 9985W        W20245  12.548   7.230   0.246 -0.2075 -0.4532 -0.0225
 9986W        W20246   0.476   8.281   8.439 -0.1122  0.2688 -0.0143
 9987W        W20247  13.706  10.415   2.018 -0.0327 -0.0840 -0.1007
 9988W        W20248  15.355  13.131   2.456  0.1562  0.0096  0.0546
 9989W        W20249   0.205   6.819   0.312  0.0522  0.2787 -0.0087
 9990W        W20250   3.711   8.838   0.792  0.0698  0.0495 -0.1296
 9991W        W20251  15.431  11.608   1.822 -0.0861  0.0447 -0.0329
 9992W        W20252   3.598  13.265   7.329  0.1267 -0.0243 -0.1072
 9993W        W20253   5.062   6.890   1.637  0.0382 -0.0254 -0.0389
 9994W        W20254  14.666   0.849   8.209 -0.2315  0.2020 -0.1755
 9995W        W20255   2.090   8.598   0.944 -0.2580  0.1545 -0.2499
 9996W        W20256   0.717  11.383   0.703 -0.0273 -0.0750  0.1933
 9997W        W20257   2.400   9.866   0.654  0.2304  0.2596  0.1834
 9998W        W20258   0.648   8.688   8.137 -0.1011 -0.0909 -0.0542
 9999W        W20259   4.500   0.889   7.981 -0.1449 -0.1477 -0.1642
10000W        W20260  14.551  14.222   0.970 -0.0589  0.0873  0.2976
10001W        W20261   0.644  15.829   7.352 -0.1209  0.5287  0.0463
10002W        W20262   2.405  12.398   0.033  0.0104 -0.1256 -0.3846
10003W        W20263  14.448  11.865   1.101  0.0447 -0.2184  0.1196
10004W        W20264  12.851  14.878   7.654 -0.2087  0.1763  0.1950
10005W        W20265  11.902  10.758   0.223  0.0048  0.1651 -0.0529
10006W        W20266  14.152  13.784   0.957  0.1062 -0.2366  0.0178
10007W        W20267   1.640   0.056   1.044  0.0552  0.0073 -0.0349
10008W        W20268   1.415  14.840   0.975 -0.0954 -0.3528 -0.1698
10009W        W20269   1.302  13.476   0.554  0.3474 -0.0403 -0.0069
10010W        W20270   1.772  10.456   1.808  0.1728  0.0065 -0.0177
10011W        W20271  15.298  15.091   8.102 -0.0569 -0.0058  0.0133
10012W        W20272   2.288  15.674   1.438  0.0472 -0.1401  0.1974
10013W        W20273  13.930   7.230   6.519  0.0277  0.1658 -0.1879
10014W        W20274   1.072   1.069   8.591 -0.0406 -0.1066 -0.3186
10015W        W20275   2.525  14.741   0.083  0.1243  0.0365 -0.0265
10016W        W20276   0.197  12.203   1.861 -0.4615  0.0427  0.1976
10017W        W20277  16.530   0.027   8.103 -0.3189 -0.0366 -0.0460
10018W        W20278   8.798  11.361   6.643  0.2948  0.0903  0.0524
10019W        W20279  13.936  13.911   7.853  0.1211 -0.2021 -0.0244
10020W        W20280   1.179  12.280   0.975 -0.2268 -0.0818  0.0684
10021W        W20281   0.525  14.480   1.401  0.4105  0.1288  0.0873
10022W        W20282   2.997   5.521   1.501 -0.0082 -0.0032  0.2702
10023W        W20283  15.762  11.914   8.449  0.4168  0.0957 -0.0586
10024W        W20284   5.924   6.206   7.617  0.1972 -0.0767 -0.1792
10025W        W20285   1.824  14.029   7.603  0.1958 -0.1641 -0.2716
10026W        W20286  13.568   6.191   8.136 -0.0291  0.1495  0.3189
10027W        W20287  15.852   3.823   7.187  0.1515  0.0024 -0.0155
10028W        W20288  16.300  12.071   0.553  0.0453 -0.2417 -0.0601
10029W        W20289   8.161  10.549   0.900  0.1860  0.0634  0.2213
10030W        W20290   4.715  15.019   8.108 -0.1078 -0.1340 -0.0124
10031W        W20291  10.581  14.563   7.659 -0.0131 -0.2644 -0.2748
10032W        W20292   2.099  13.452   0.066  0.0329  0.0718 -0.1428
10033W        W20293  15.291   4.034   2.385 -0.0342  0.0013 -0.0485
10034W        W20294  14.462  12.753   1.876  0.1123  0.2238  0.1975
10035W        W20295  15.989  11.225   0.505  0.1446 -0.1305 -0.0034
10036W        W20296   7.168  15.566   7.484  0.1132 -0.1059 -0.0574
10037W        W20297   1.565   4.133   6.694 -0.1065 -0.0995 -0.2223
10038W        W20298  15.119   0.214   1.007 -0.1435  0.1547  0.0654
10039W        W20299   8.010  14.732   1.233  0.3438 -0.0926 -0.1176
10040W        W20300   2.563  15.264   1.314  0.1788  0.1599 -0.2986
10041W        W20301   5.122  15.390   1.279 -0.2293  0.3858  0.3296
10042W        W20302   7.893  15.210   7.209  0.0551 -0.1341  0.2408
10043W        W20303   5.437   0.383   6.370  0.1206  0.0987  0.0289
10044W        W20304   3.726   0.405   1.006  0.0688  0.3446 -0.2646
10045W        W20305   5.117  14.304   8.506 -0.0948 -0.1052  0.0551
10046W        W20306  15.157   4.509   7.236 -0.3973 -0.1083  0.0629
10047W        W20307  13.185  15.602   1.636  0.1505 -0.2299 -0.0537
10048W        W20308   6.839   3.009   2.334 -0.1544 -0.0449  0.1137
10049W        W20309   7.985  14.520   1.782  0.3018  0.1532 -0.5276
10050W        W20310   2.980   1.273   8.431 -0.0104  0.3632  0.0969
10051W        W20311   0.686   9.376   1.934  0.0562 -0.0095 -0.1458
10052W        W20312   6.238  16.563   2.800 -0.2036  0.2701 -0.2141
10053W        W20313   0.339  11.459   1.316  0.0109 -0.0481 -0.0159
10054W        W20314   0.818  11.405   7.188  0.0378  0.3089  0.0855
10055W        W20315   3.579   0.152   8.668 -0.0186  0.2467 -0.1558
10056W        W20316   3.084  10.938   7.997  0.0598 -0.3011 -0.2195
10057W        W20317   1.182   1.882   1.671 -0.0301  0.0886  0.1177
10058W        W20318  14.124   1.180   2.397 -0.2815 -0.0751 -0.2013
10059W        W20319   1.948  15.690   0.698 -0.1384 -0.0554  0.5963
10060W        W20320   3.160  15.812   7.115  0.3643  0.1989  0.1892
10061W        W20321  14.820   2.051   2.402  0.1269  0.0218 -0.1151
10062W        W20322  14.345  14.860   1.180  0.1552 -0.2573 -0.4556
10063W        W20323   3.776  16.183   1.527 -0.0312 -0.0870 -0.1363
10064W        W20324   2.975   0.207   1.564 -0.1407 -0.0364 -0.0349
10065W        W20325   2.517  15.820   1.943 -0.2621 -0.0685 -0.1211
10066W        W20326   2.722   0.076   1.983  0.2146 -0.2007 -0.1989
10067W        W20327  12.721  10.979   7.212  0.0213 -0.1826  0.1332
10068W        W20328   2.067  15.223   1.434  0.0712 -0.0009  0.4266
10069W        W20329   1.362  13.577   1.601  0.4071 -0.1023 -0.2469
10070W        W20330  12.792   3.984   0.739 -0.1215  0.3568 -0.1258
10071W        W20331   2.678   8.853   0.515  0.0568  0.0125 -0.0622
10072W        W20332   8.480  12.667   1.054 -0.1353  0.1334 -0.0752
10073W        W20333   3.433   9.835   0.483 -0.1115 -0.0033 -0.0468
10074W        W20334   6.506  13.996   6.918  0.0512  0.1928  0.0193
10075W        W20335   3.450   2.305   1.892 -0.0029 -0.2252 -0.1176
10076W        W20336   2.872  13.224   1.231 -0.3169  0.2427 -0.1737
10077W        W20337   5.342  13.988   6.126  0.2274  0.1796  0.0832
10078W        W20338   5.607   2.082   0.507  0.1660 -0.1439  0.0694
10079W        W20339   0.594  13.149   8.658 -0.0844 -0.0510  0.1861
10080W        W20340  13.199   0.636   7.311  0.3755 -0.0827 -0.2409
10081W        W20341   3.569  13.965   8.007  0.1508 -0.1008 -0.0945
10082W        W20342  14.166   3.100   1.254 -0.2711 -0.2890  0.3085
10083W        W20343   3.325  12.206   8.200 -0.1139  0.1938  0.1994
10084W        W20344  11.546   4.033   1.327  0.0726  0.1421  0.0882
10085W        W20345   4.636  14.093   8.447  0.0951  0.4124  0.1892
10086W        W20346   3.430   2.702   1.056  0.2129 -0.1130 -0.4448
10087W        W20347   3.425  15.604   7.624  0.2734  0.3435  0.0408
10088W        W20348  15.385  12.861   7.125 -0.2143 -0.1686  0.0765
10089W        W20349  13.233  14.342   0.172 -0.2371  0.2474 -0.0515
10090W        W20350  10.426   0.379   6.709  0.3096  0.0740 -0.2501
10091W        W20351   2.522   1.437   1.554 -0.0799 -0.2114  0.1662
10092W        W20352  14.605  14.902   0.274 -0.0272  0.1002  0.1310
10093W        W20353  16.142  14.721   7.901 -0.0971 -0.0610 -0.1642
10094W        W20354   3.316   0.069   8.014 -0.1798 -0.0160  0.0194
10095W        W20355   5.294   1.277   0.850  0.0091 -0.1493  0.0963
10096W        W20356   4.206   9.776   2.491 -0.2086  0.2668 -0.0268
10097W        W20357   2.857  12.969   0.544  0.1495 -0.3735  0.2401
10098W        W20358   1.235  16.176   1.119 -0.0445  0.1712  0.0935
10099W        W20359   6.962   8.777   6.916 -0.0696  0.1030  0.1062
10100W        W20360  15.249  15.692   0.617 -0.0719 -0.0981  0.3107
10101W        W20361  12.052  15.332   0.138  0.2142 -0.0350  0.0848
10102W        W20362   7.881  11.743   7.570 -0.1361  0.1095  0.3270
10103W        W20363  12.929  12.688   7.317 -0.1669 -0.1949  0.3753
10104W        W20364  12.760  16.272   8.293  0.2775  0.0285 -0.0212
10105W        W20365  14.125  15.556   0.626  0.2905 -0.5170  0.1461
10106W        W20366  15.617   3.358   0.913  0.2169  0.0237 -0.0287
10107W        W20367   0.603   6.169   0.140  0.0847  0.0805 -0.3073
10108W        W20368  15.868  15.782   6.257 -0.2545  0.0007 -0.0868
10109W        W20369   2.115  10.979   6.933 -0.1429  0.3154 -0.0482
10110W        W20370  12.044   0.449   0.439  0.0035  0.0561 -0.1970
10111W        W20371   7.059  10.580   1.487  0.2440 -0.0942  0.0055
10112W        W20372   2.132  15.328   7.491 -0.0603  0.2421 -0.0815
10113W        W20373  16.227  11.184   8.324 -0.1397  0.1622 -0.1937
10114W        W20374   6.565   3.303   1.132  0.1336  0.0220  0.4242
10115W        W20375   6.264   0.976   0.616  0.2233 -0.0897 -0.0885
10116W        W20376   7.635  10.636   0.911  0.1559 -0.0719  0.0802
10117W        W20377  15.833  11.630   7.548 -0.0193  0.3601  0.0241
10118W        W20378  10.249   5.201   8.508 -0.2167  0.2117  0.0561
10119W        W20379   2.360  15.541   8.389  0.1602  0.2886  0.2480
10120W        W20380   0.307  16.393   1.025 -0.0714  0.0708  0.0093
10121W        W20381  16.370  13.716   1.549  0.0091 -0.0086 -0.1617
10122W        W20382  14.939   8.685   0.457  0.3741  0.0712 -0.0436
10123W        W20383   6.135  10.155   0.109 -0.2545 -0.0797  0.0667
10124W        W20384   1.494  11.872   0.951  0.1022  0.0160  0.0941
10125W        W20385   2.824   6.032   0.437  0.0820  0.2044 -0.0710
10126W        W20386  14.796  13.987   7.478 -0.0832  0.2580  0.1473
10127W        W20387   2.676   2.875   1.533  0.3752 -0.0382  0.2270
10128W        W20388  15.882   2.723   8.267  0.0261  0.0387 -0.0957
10129W        W20389   0.213  16.395   0.516 -0.0319 -0.3151  0.3957
10130W        W20390  15.884   0.009   2.079  0.0821  0.2180  0.1031
10131W        W20391   1.897   1.832   0.789  0.1827 -0.3214  0.1028
10132W        W20392   1.581  15.000   1.959 -0.1046 -0.3943  0.2495
10133W        W20393  15.620  11.916   7.967 -0.2722 -0.2066  0.2002
10134W        W20394   8.252  10.206   8.119 -0.0630  0.3684 -0.1100
10135W        W20395  16.165  11.550   3.223  0.0736  0.3317 -0.5413
10136W        W20396   4.527   0.040   7.558  0.0662  0.1191 -0.0753
10137W        W20397  10.154   1.778   0.595 -0.0627 -0.0547  0.1064
10138W        W20398  11.044   2.202   7.308  0.5104  0.2557  0.0375
10139W        W20399   2.956  15.695   8.428  0.0529 -0.0991  0.0570
10140W        W20400   1.212  15.332   1.679  0.1302 -0.3282 -0.1847
10141W        W20401  14.751  15.191   1.247 -0.0278 -0.5071  0.1887
10142W        W20402   3.451   2.017   7.659 -0.2588  0.1154 -0.1149
10143W        W20403   0.675  13.272   7.753  0.1677  0.4472  0.0595
10144W        W20404   9.824  12.725   7.606 -0.1749 -0.1912 -0.1970
10145W        W20405   2.276  15.179   0.021  0.1122 -0.2349 -0.2000
10146W        W20406  11.859   1.792   7.382 -0.3893  0.0658 -0.1683
10147W        W20407   1.923  16.565   6.191 -0.0392  0.0559  0.0784
10148W        W20408   6.370  15.670   0.368 -0.0395 -0.1361  0.2336
10149W        W20409   4.177   5.821   8.107 -0.0534 -0.1781 -0.0427
10150W        W20410   2.372   3.468   8.346 -0.0495 -0.0965  0.1804
10151W        W20411   8.358  16.130   1.954 -0.0197 -0.0012  0.0843
10152W        W20412  13.013  14.099   0.638 -0.3341  0.0760 -0.2290
10153W        W20413   4.115  13.555   1.315 -0.0121  0.1431 -0.0502
10154W        W20414   5.316  10.502   8.307  0.1230 -0.1156  0.2951
10155W        W20415  14.478   2.136   3.338 -0.2315  0.2012 -0.3603
10156W        W20416   6.150   0.018   7.336 -0.1803  0.0725  0.2102
10157W        W20417  16.554  10.567   2.701 -0.0436 -0.1177 -0.0458
10158W        W20418   6.845   7.606   0.653 -0.3608 -0.1623 -0.0086
10159W        W20419   0.858  10.749   1.594  0.0961  0.2771 -0.2262
10160W        W20420   2.733  15.053   0.456 -0.0294 -0.0518 -0.0466
10161W        W20421   1.665   2.509   0.822 -0.2422  0.1017  0.0034
10162W        W20422   5.200  14.532   6.727 -0.2082  0.4400  0.2036
10163W        W20423   9.772   2.927   0.835  0.1277 -0.2609  0.3138
10164W        W20424   2.994   4.649   7.940 -0.1681 -0.0851 -0.0839
10165W        W20425   3.368  11.872   2.161  0.1154 -0.1234 -0.0475
10166W        W20426   7.108   0.741   0.951 -0.4095 -0.0284 -0.0025
10167W        W20427   5.638  11.740   8.609 -0.0687 -0.0107  0.0085
10168W        W20428   3.811  11.695   0.196 -0.0594  0.1965 -0.0468
10169W        W20429   0.650   2.652   1.137 -0.1799 -0.2679  0.2727
10170W        W20430   2.834  14.670   8.274  0.2656 -0.0936 -0.1544
10171W        W20431   7.073   8.168   8.527 -0.3897  0.4130  0.1132
10172W        W20432   6.645  10.246   0.173 -0.0810 -0.2866 -0.1558
10173W        W20433  16.374  12.235   6.415 -0.1013 -0.2171 -0.2075
10174W        W20434  10.553   6.903   1.000  0.3288  0.2177  0.0246
10175W        W20435   3.713  11.236   2.010  0.1620 -0.1977 -0.0911
10176W        W20436   3.717  15.342   8.119 -0.0759 -0.0326  0.1195
10177W        W20437   7.773  15.334   8.614  0.0373  0.1102  0.1193
10178W        W20438   7.079   1.601   0.272 -0.0085 -0.0278 -0.2132
10179W        W20439   2.676  14.587   0.592  0.0240 -0.2060  0.1128
10180W        W20440   4.513   3.320   8.321 -0.1519  0.2588  0.1917
10181W        W20441   6.105  12.051   1.477  0.0723  0.1280  0.3017
10182W        W20442   6.349  15.351   6.172 -0.1657 -0.1916 -0.1274
10183W        W20443   5.742  13.790   7.186 -0.0412  0.1421 -0.2784
10184W        W20444   8.012   1.363   6.115  0.3876 -0.1034  0.1891
10185W        W20445   4.330  15.053   8.441  0.1348  0.0324  0.1061
10186W        W20446  15.919  14.378   8.210  0.0320  0.2465  0.1638
10187W        W20447   1.355  11.002   1.430 -0.1522 -0.1328  0.0940
10188W        W20448   7.990  14.097   7.539  0.4023 -0.0391  0.2954
10189W        W20449   4.785  12.727   7.881  0.0266 -0.2471 -0.1542
10190W        W20450   7.197   2.120   0.025 -0.3234  0.3192 -0.0754
10191W        W20451   4.539   7.303   8.572 -0.4533  0.0322 -0.0199
10192W        W20452   2.163   2.223   1.490  0.2810  0.1556  0.0495
10193W        W20453  10.051   6.776   1.011 -0.0390 -0.0317  0.2361
10194W        W20454   6.667   1.844   7.759  0.2472 -0.1243 -0.1861
10195W        W20455   1.209  12.713   2.852  0.1010  0.2157 -0.2534
10196W        W20456   9.228  13.126   0.403  0.2833  0.0307  0.0170
10197W        W20457   7.931   0.125   1.137 -0.0479  0.1536  0.2719
10198W        W20458   4.063  16.111   0.619  0.1920 -0.0303  0.0477
10199W        W20459  11.599   4.563   1.208 -0.1510  0.1403  0.0126
10200W        W20460   6.559   0.276   7.684 -0.0410 -0.2690 -0.1674
10201W        W20461   2.718   1.981   1.428 -0.1343  0.2210  0.2704
10202W        W20462   4.624   2.707   1.761  0.0102 -0.1674 -0.1751
10203W        W20463   0.969   4.668   6.114  0.2103 -0.1491 -0.0518
10204W        W20464   7.334  16.384   0.823  0.0331 -0.1190  0.0577
10205W        W20465   6.188  13.537   7.016 -0.2571 -0.1085  0.0730
10206W        W20466  10.362   0.886   0.089 -0.0604  0.0460  0.2048
10207W        W20467  14.515  12.959   7.622  0.0286  0.2522 -0.0172
10208W        W20468   5.732  14.447   0.674 -0.2572 -0.0580  0.1116
10209W        W20469   1.984  12.168   8.505  0.1531 -0.0304  0.2358
10210W        W20470   6.233   0.498   2.607 -0.0407  0.1451  0.2254
10211W        W20471   9.086  14.456   1.005  0.2772 -0.2533 -0.1463
10212W        W20472   4.841   2.716   0.811  0.2882  0.2857 -0.0712
10213W        W20473  10.791  11.920   1.475 -0.0282 -0.0531 -0.0434
10214W        W20474   2.863  16.193   7.200  0.0792 -0.0843 -0.2244
10215W        W20475   6.341   6.776   6.865  0.2236 -0.0170 -0.2109
10216W        W20476   9.616  16.340   0.952 -0.0735 -0.3541 -0.1474
10217W        W20477   8.887  16.534   1.249 -0.0704 -0.1557 -0.1459
10218W        W20478   1.538  16.373   0.016 -0.0977 -0.3473 -0.2367
10219W        W20479   0.125   2.946   2.562  0.1250 -0.4112 -0.3764
10220W        W20480   3.095  15.071   1.434 -0.1071 -0.0693  0.0935
10221W        W20481   0.842  12.968   0.462 -0.0096  0.1336 -0.0090
10222W        W20482   3.837   0.767   6.946  0.2187 -0.0139  0.1932
10223W        W20483   7.642  15.947   8.306  0.1786  0.2626 -0.1530
10224W        W20484   5.227   0.785   8.608  0.0404 -0.2307  0.0941
10225W        W20485   2.972  13.315   8.276 -0.0235  0.0239 -0.0496
10226W        W20486   5.609  14.910   1.989  0.0645 -0.1455 -0.3023
10227W        W20487   5.203  13.405   8.181 -0.1067 -0.0834 -0.0591
10228W        W20488   5.895  12.698   0.723 -0.0964 -0.0095 -0.0348
10229W        W20489   6.577   1.799   0.290  0.0457 -0.2341 -0.1303
10230W        W20490   7.473   7.351   2.110 -0.0261 -0.0888 -0.0006
10231W        W20491  14.945   1.521   0.411 -0.0688 -0.2212  0.1668
10232W        W20492  14.407   7.264   6.992 -0.1417 -0.1714  0.0393
10233W        W20493   8.050  16.275   1.360 -0.0061 -0.1337  0.1082
10234W        W20494   1.209  13.925   8.402  0.0214 -0.1631 -0.4165
10235W        W20495   6.680   2.293   7.446 -0.0161  0.1331  0.0661
10236W        W20496   4.410   1.764   8.406  0.2129 -0.0294  0.0838
10237W        W20497  11.264   8.598   1.650  0.2957  0.1246 -0.1179
10238W        W20498  14.542  13.352   0.722  0.1829  0.0038 -0.0786
10239W        W20499   3.638  11.921   1.344  0.0992  0.4052 -0.2613
10240W        W20500   1.330   0.529   1.230 -0.2982 -0.4848  0.2135
10241W        W20501   6.816  15.919   0.435 -0.1518  0.0614  0.2008
10242W        W20502   3.283   4.280   6.324  0.3568  0.3485  0.3464
10243W        W20503   3.193  11.821   6.436  0.1078 -0.0455  0.0747
10244W        W20504  15.919   1.352   7.790 -0.2691  0.0550 -0.3304
10245W        W20505   1.669   0.627   8.380 -0.0285  0.1328  0.0824
10246W        W20506   5.982  16.320   6.835 -0.1380  0.2323  0.2960
10247W        W20507  14.063   1.042   0.722  0.0828 -0.1023  0.0351
10248W        W20508   1.580  15.600   1.829  0.2186 -0.2141  0.2610
10249W        W20509   7.349   1.643   7.457 -0.1271 -0.2131  0.3542
10250W        W20510  11.337  14.893   0.905  0.0734  0.3341  0.2314
10251W        W20511   7.775  13.512   0.909  0.0524  0.1413 -0.0780
10252W        W20512   9.360  16.000   7.853  0.1525  0.2354  0.2192
10253W        W20513   8.833  10.407   6.965  0.0508  0.0046  0.0851
10254W        W20514   4.272  13.444   1.857  0.1703  0.0504 -0.1423
10255W        W20515  13.581  11.504   1.933 -0.1094 -0.1704 -0.0142
10256W        W20516   2.869   0.214   1.010  0.0656 -0.3388 -0.0569
10257W        W20517   9.288   1.540   6.530  0.2241  0.1666  0.0503
10258W        W20518   3.459  12.882   6.348  0.1046 -0.2451 -0.1730
10259W        W20519   8.525  16.077   8.083 -0.2129  0.2262 -0.3080
10260W        W20520   0.001  13.882   7.979  0.1542 -0.0254  0.3367
10261W        W20521   4.185  14.309   1.520 -0.3883 -0.1046  0.0200
10262W        W20522   1.073   7.796   7.144  0.1626  0.2622  0.0116
10263W        W20523   4.715  12.249   0.132 -0.1554  0.1433 -0.1517
10264W        W20524   1.646  15.714   7.114 -0.2785 -0.2256 -0.0862
10265W        W20525   6.663   9.201   7.466  0.3007  0.1520  0.1536
10266W        W20526   2.686  10.499   8.497 -0.0665 -0.0259 -0.0070
10267W        W20527   6.655   0.326   1.405  0.4065  0.0107  0.0702
10268W        W20528  16.136  10.734   8.070  0.2260 -0.0773 -0.0799
10269W        W20529   2.405  14.527   7.922 -0.2596  0.2489 -0.1519
10270W        W20530   1.565  14.487   1.295  0.0666 -0.3310 -0.0674
10271W        W20531   5.676   9.041   0.320 -0.0682  0.0279  0.4260
10272W        W20532   8.279   0.415   8.158  0.1271 -0.1049 -0.0292
10273W        W20533   6.464  14.325   2.625  0.2361 -0.0397 -0.0528
10274W        W20534   4.250  15.254   0.619 -0.0889 -0.2793 -0.2576
10275W        W20535   4.630   0.767   1.210 -0.1327  0.1019  0.2545
10276W        W20536   7.400  11.447   0.144  0.0346 -0.3475 -0.0272
10277W        W20537   8.783   0.132   0.753  0.0080 -0.0366  0.0761
10278W        W20538  12.072  12.214   0.882  0.0593  0.0875 -0.0845
10279W        W20539   2.564  16.361   0.826 -0.1191  0.0550  0.2265
10280W        W20540   7.607   0.679   1.902 -0.1696 -0.3202 -0.1377
10281W        W20541   9.457  13.667   0.361  0.0803  0.2401  0.1519
10282W        W20542   4.850   2.362   7.794 -0.3618  0.4020  0.0059
10283W        W20543   9.447   0.582   0.692 -0.0258 -0.1788 -0.2600
10284W        W20544   7.176   8.031   0.683 -0.0638 -0.1938  0.0115
10285W        W20545   5.451  14.183   7.025 -0.0524  0.2628 -0.0562
10286W        W20546   9.691   3.040   1.553  0.3673  0.1945 -0.1282
10287W        W20547   3.839   2.905   6.552  0.1226  0.2413  0.0868
10288W        W20548   4.306   0.987   1.585 -0.0460 -0.0075 -0.2052
10289W        W20549  15.040   3.402   7.977  0.2697 -0.2788 -0.0361
10290W        W20550  15.903   2.227   1.524 -0.1616  0.0892  0.0443
10291W        W20551   3.487  11.715   0.801  0.0693 -0.3215 -0.2218
10292W        W20552   4.663  14.150   7.945  0.3388  0.0564 -0.0859
10293W        W20553   6.437  15.913   0.843  0.1098  0.1442  0.4430
10294W        W20554   4.493  13.915   7.181 -0.0467 -0.0827  0.1635
10295W        W20555   5.489   1.785   1.242  0.2179  0.0189 -0.1106
10296W        W20556   8.260  12.011   8.425  0.2364 -0.0761 -0.2819
10297W        W20557  16.357   1.075   0.230 -0.2122  0.0280  0.3264
10298W        W20558   1.412   1.199   0.455 -0.0958  0.2772 -0.0700
10299W        W20559   7.858   3.219   7.501 -0.0759  0.0932  0.1157
10300W        W20560   1.657  12.831   6.871 -0.1001  0.1067 -0.0217
10301W        W20561   4.889   7.860   7.939  0.0166 -0.0306 -0.0061
10302W        W20562   0.749  12.615   0.091 -0.0576  0.0695  0.1688
10303W        W20563   7.003  11.267   6.065  0.0277  0.0370 -0.2900
10304W        W20564  15.011  12.454   1.743 -0.1297  0.2117  0.1711
10305W        W20565  15.091   9.612   1.736  0.0030 -0.1456  0.2410
10306W        W20566  13.412  12.771   8.578 -0.2242 -0.0129  0.1056
10307W        W20567   0.516   3.445   7.748  0.4269  0.2948 -0.1085
10308W        W20568   7.501   0.274   7.610 -0.1461 -0.2060  0.4114
10309W        W20569   4.274  10.672   6.996  0.0030  0.0962  0.1355
10310W        W20570   2.331  12.982   7.172  0.0856 -0.0181 -0.1998
10311W        W20571   8.862   1.279   1.342  0.1128 -0.2147  0.0123
10312W        W20572  16.022  13.704   2.515  0.1639 -0.0429 -0.0574
10313W        W20573  10.313  14.688   8.647  0.0282 -0.1326 -0.2944
10314W        W20574   2.018  13.839   2.667 -0.1705  0.1986 -0.1639
10315W        W20575  11.748   4.138   1.830 -0.0300  0.0834  0.2600
10316W        W20576   7.305  13.607   1.138  0.0043  0.0733  0.3270
10317W        W20577   9.951   0.807   5.949  0.2838  0.1486 -0.1175
10318W        W20578  10.419  11.624   1.760  0.0990  0.0157 -0.0255
10319W        W20579   6.550  12.430   2.292  0.1026  0.1833  0.0043
10320W        W20580   4.191  16.319   1.807 -0.2864 -0.1468  0.5014
10321W        W20581  11.347  15.012   0.207 -0.1056 -0.0389 -0.4596
10322W        W20582   7.582   5.029   1.544 -0.1558  0.1379  0.2533
10323W        W20583   6.926  14.715   7.155  0.1660 -0.0842 -0.3448
10324W        W20584   3.883  11.121   1.451  0.0347 -0.1707 -0.0112
10325W        W20585  11.879  16.164   1.082  0.1069 -0.1881 -0.0325
10326W        W20586  13.247   4.807   1.330 -0.3972 -0.0869  0.5379
10327W        W20587   2.247  10.554   8.129  0.0045  0.0292 -0.1934
10328W        W20588  16.287  12.176   8.225 -0.1967 -0.0654 -0.3415
10329W        W20589  14.015   1.243   8.555  0.0591  0.0298  0.0707
10330W        W20590   5.663  14.153   1.984 -0.0051  0.1879  0.1228
10331W        W20591  14.412  12.552   8.028 -0.0149 -0.2605  0.1471
10332W        W20592  10.069  14.854   8.223  0.3565  0.3177 -0.1269
10333W        W20593  11.689  10.908   6.951  0.0525  0.1386  0.1683
10334W        W20594   4.318  16.097   0.200 -0.0098  0.0370  0.3042
10335W        W20595   8.445   3.476   8.639 -0.1424 -0.1307 -0.0961
10336W        W20596   7.176  15.241   0.206  0.1207  0.0667  0.2125
10337W        W20597   8.481   8.784   1.617  0.0107  0.2232  0.3954
10338W        W20598   3.990  10.520   0.100 -0.0930  0.4141 -0.1534
10339W        W20599   6.230  13.045   0.949  0.0792  0.1182  0.4122
10340W        W20600   2.407   0.485   1.686  0.0483  0.0738  0.0069
10341W        W20601   9.776  10.145   0.349  0.0318 -0.0411  0.1377
10342W        W20602   4.585  15.442   0.947 -0.1281  0.1974 -0.0100
10343W        W20603   5.313   5.374   6.658 -0.1697  0.0129  0.0699
10344W        W20604   3.561   3.859   0.506  0.4871  0.0975 -0.3914
10345W        W20605   0.100   0.697   1.465 -0.1876 -0.0773  0.3084
10346W        W20606  12.897  15.246   0.255  0.1294 -0.1181 -0.0106
10347W        W20607   7.221  14.285   0.339 -0.5756  0.0645  0.1339
10348W        W20608   4.150   0.304   7.299 -0.0691  0.1897  0.0765
10349W        W20609  16.329  15.510   7.352 -0.4753  0.2271  0.2022
10350W        W20610  14.807  14.280   8.659  0.0038  0.1615 -0.1555
10351W        W20611  12.183   5.630   8.588  0.0920 -0.0712 -0.1024
10352W        W20612  14.491  13.148   8.597 -0.2035 -0.2088 -0.0960
10353W        W20613   3.695  16.250   0.195  0.0174 -0.1259  0.3646
10354W        W20614   5.079  14.304   1.434  0.1129 -0.0239 -0.0679
10355W        W20615   1.113   3.166   0.766  0.0792 -0.2084 -0.3123
10356W        W20616   6.336   4.130   6.881 -0.1461  0.1743  0.1160
10357W        W20617  10.235   1.050   7.682 -0.2944 -0.1206  0.1943
10358W        W20618   7.514   2.885   8.599 -0.1435  0.1220 -0.1992
10359W        W20619  16.314   1.667   0.631  0.0325 -0.2658  0.1495
10360W        W20620   8.827  12.770   7.304 -0.0885  0.0699  0.2611
10361W        W20621   2.301   1.027   7.297  0.1212 -0.1775 -0.0147
10362W        W20622   5.784  13.935   2.842  0.0198  0.0963 -0.2540
10363W        W20623  10.569   3.243   8.176 -0.1334  0.2281  0.3154
10364W        W20624   6.062  11.496   0.146 -0.0348 -0.0943 -0.2134
10365W        W20625   7.125  12.339   7.276  0.1661  0.0235  0.4925
10366W        W20626   4.708  12.328   8.243  0.1756 -0.2101  0.5387
10367W        W20627   6.822   2.290   8.048 -0.1534  0.1542  0.1265
10368W        W20628   8.137   3.226   0.846  0.0354  0.0065 -0.0369
10369W        W20629   6.345   0.028   6.526  0.0283 -0.1281 -0.1265
10370W        W20630  11.487   0.399   7.311 -0.0954 -0.0824 -0.1248
10371W        W20631  12.048   2.198   0.338  0.1633  0.2439 -0.0497
10372W        W20632   6.939   7.188   7.228  0.3727  0.1302  0.1411
10373W        W20633   4.180  15.360   1.420 -0.0091 -0.1572 -0.2746
10374W        W20634   1.793  13.519   0.480 -0.1240  0.0121  0.1182
10375W        W20635  11.905   0.926   7.035  0.0140 -0.1085  0.1876
10376W        W20636   9.989  13.649   0.190 -0.0275 -0.0249 -0.1849
10377W        W20637   4.204  16.168   8.218 -0.3576 -0.1499  0.2152
10378W        W20638   8.065  13.538   1.755  0.0580  0.0901  0.3019
10379W        W20639   7.511  10.825   7.908 -0.1835  0.1020  0.0108
10380W        W20640   8.356  14.773   2.078  0.0698  0.1455 -0.2214
10381W        W20641   7.111  12.753   5.786  0.1047 -0.0513 -0.1422
10382W        W20642  11.941   2.978   0.154 -0.0670 -0.0875  0.2522
10383W        W20643   8.392  14.294   2.253 -0.2292  0.0050 -0.1331
10384W        W20644   1.052   1.998   0.338  0.0017  0.1150 -0.1932
10385W        W20645   1.581   9.723   0.064  0.0153  0.1560 -0.1763
10386W        W20646   4.808  15.109   7.519  0.2650  0.0823 -0.2502
10387W        W20647   2.310  15.465   7.020 -0.3387  0.1348  0.3279
10388W        W20648   3.959  15.488   6.811 -0.0355 -0.2721  0.4331
10389W        W20649   8.858  15.801   7.772 -0.1500  0.1939 -0.2046
10390W        W20650   8.305  13.224   6.344  0.2382 -0.0736 -0.1403
10391W        W20651  12.302   7.918   0.785  0.2126  0.2632  0.0088
10392W        W20652   4.143  14.121   8.611  0.1670  0.0498 -0.0420
10393W        W20653   8.813   3.140   7.047  0.2602  0.0198 -0.0505
10394W        W20654   9.328   7.677   7.821  0.0691 -0.0620 -0.1783
10395W        W20655   9.897   1.622   1.414 -0.0689  0.2580 -0.0195
10396W        W20656  10.515  10.761   6.980 -0.1723  0.0313  0.0825
10397W        W20657   5.492   4.022   7.838  0.2092  0.3770 -0.2069
10398W        W20658   5.995  14.361   8.098 -0.0427  0.3775  0.0483
10399W        W20659   7.695   1.962   1.310 -0.1271  0.2190 -0.2040
10400W        W20660  10.790   3.726   8.280 -0.0745 -0.4161  0.0164
10401W        W20661   8.303  15.943   6.381 -0.1094 -0.1442  0.0011
10402W        W20662   3.524   0.260   1.582  0.0273 -0.1017  0.0215
10403W        W20663   4.458   1.954   7.115 -0.0473  0.1052  0.3943
10404W        W20664   6.110  14.364   1.612 -0.1399  0.1903 -0.0251
10405W        W20665  11.010  15.223   6.839  0.1268 -0.0767 -0.0625
10406W        W20666  14.144  11.774   6.992  0.0442 -0.0216  0.0345
10407W        W20667   6.843   9.141   1.292  0.2178  0.1463 -0.3993
10408W        W20668   2.058  13.681   1.646 -0.0925  0.0453  0.0752
10409W        W20669   7.886  12.999   7.594 -0.1334  0.0463 -0.2514
10410W        W20670  10.328  14.227   0.766  0.0822 -0.2616 -0.1361
10411W        W20671   8.570  12.455   7.708  0.1547 -0.2254 -0.3018
10412W        W20672   5.102  11.568   7.730  0.3340  0.2088 -0.1303
10413W        W20673   9.566   1.007   8.310 -0.1260  0.0413 -0.0102
10414W        W20674   7.317  15.190   1.916  0.1446  0.1306 -0.1979
10415W        W20675  15.293  16.045   8.197  0.1215 -0.2200 -0.0886
10416W        W20676   6.872  15.435   2.012  0.1812 -0.2459 -0.0501
10417W        W20677   7.651  13.965   1.081 -0.1478 -0.0087  0.2169
10418W        W20678   8.872  11.737   7.019  0.1665  0.0171 -0.0512
10419W        W20679   5.648  16.116   8.026  0.3482 -0.3268 -0.0919
10420W        W20680   8.135   2.277   1.078 -0.1909 -0.0256 -0.2310
10421W        W20681   9.382   2.696   7.440 -0.0176 -0.1829  0.1467
10422W        W20682  11.880   0.921   6.550  0.0511  0.0811 -0.0364
10423W        W20683   8.991  13.141   6.901  0.1707 -0.0458  0.0965
10424W        W20684   5.152   1.448   1.447 -0.3217 -0.2621 -0.0475
10425W        W20685   9.727   1.102   7.768 -0.0069  0.0788 -0.2305
10426W        W20686   9.831  10.488   8.061  0.0422  0.2928  0.0937
10427W        W20687   9.056  14.283   7.509  0.1961  0.1681 -0.0133
10428W        W20688   9.749  13.798   1.035  0.2757 -0.1245 -0.1855
10429W        W20689  12.586  12.579   0.911  0.1975  0.2139  0.1474
10430W        W20690   8.368   1.154   1.508 -0.0573  0.1404  0.0977
10431W        W20691   4.645  10.021   8.138  0.0805  0.1465 -0.0838
10432W        W20692  12.859   0.275   8.646 -0.5741 -0.0362  0.1586
10433W        W20693   5.912   2.520   0.357  0.3248  0.0149 -0.2354
10434W        W20694   5.724  16.487   0.651  0.1718  0.0751  0.0038
10435W        W20695   3.986   7.780   7.867  0.0542  0.0553  0.0927
10436W        W20696   7.992  12.027   6.785 -0.3406 -0.1004 -0.3651
10437W        W20697   9.443   2.234   8.231  0.0338 -0.3412  0.0134
10438W        W20698   3.278   3.086   0.806  0.1354  0.0037 -0.0248
10439W        W20699  12.401  15.610   8.416 -0.2375  0.0588 -0.0143
10440W        W20700   8.265  16.187   0.371  0.1466  0.0364  0.0389
10441W        W20701   8.391  14.844   1.530 -0.2048 -0.0324  0.1816
10442W        W20702   9.310  11.657   2.170 -0.0019 -0.0973  0.0988
10443W        W20703   9.107   1.907   8.124  0.0232  0.0913  0.0035
10444W        W20704   4.868   0.817   0.274  0.0963 -0.0224 -0.1414
10445W        W20705  12.581  14.581   6.899  0.0502  0.2521  0.2164
10446W        W20706   0.858  13.454   8.342 -0.2762 -0.1416 -0.1432
10447W        W20707   6.231   5.300   0.285 -0.0499  0.2359 -0.2055
10448W        W20708  11.304   4.023   1.915 -0.0170  0.2131 -0.1165
10449W        W20709  11.168  12.371   1.200 -0.2895 -0.1819  0.1050
10450W        W20710   8.218  16.107   7.651  0.4647  0.0440  0.0159
10451W        W20711  13.035   4.343   6.398 -0.0556  0.5016 -0.2672
10452W        W20712   9.301   3.755   0.668  0.0959  0.1687 -0.0665
10453W        W20713   7.001  14.226   1.958 -0.0468  0.1527 -0.0449
10454W        W20714   7.049  16.461   2.088  0.2160  0.0082  0.1632
10455W        W20715   2.264   1.734   6.281 -0.1123 -0.1840  0.2864
10456W        W20716  11.052  14.026   8.443  0.1703 -0.1215 -0.0631
10457W        W20717  11.403   0.028   6.969  0.3495 -0.2800 -0.2181
10458W        W20718   2.748   2.224   6.884  0.2377 -0.4794 -0.3710
10459W        W20719   8.836   4.925   7.750 -0.1017 -0.0944 -0.0899
10460W        W20720   4.761   9.905   0.724  0.0021  0.2331 -0.1176
10461W        W20721   7.051   2.783   5.908 -0.0386  0.1569 -0.0739
10462W        W20722  10.055  15.837   7.144  0.0783  0.1029  0.1271
10463W        W20723  10.719   1.588   0.788 -0.1451  0.2149 -0.0680
10464W        W20724  10.330   0.014   1.099  0.0496 -0.0293 -0.1833
10465W        W20725   7.221   2.635   1.583  0.1690  0.0294 -0.4404
10466W        W20726   6.593   2.072   1.004  0.2972 -0.2197 -0.4320
10467W        W20727  10.295   3.060   0.000  0.1590 -0.0121  0.0008
10468W        W20728  11.304  12.952   6.484  0.1748  0.1031 -0.1701
10469W        W20729   6.039  11.701   7.074  0.5008 -0.1321 -0.4086
10470W        W20730   5.993   0.171   0.279 -0.0563  0.1337 -0.1568
10471W        W20731   9.525  12.036   7.632  0.0348 -0.2344  0.1161
10472W        W20732   3.255   8.203   7.999 -0.1270 -0.1774 -0.1420
10473W        W20733  10.134  14.947   0.319 -0.0505  0.1708  0.1380
10474W        W20734  12.167   1.526   8.272  0.1141  0.3245 -0.1803
10475W        W20735  12.571   7.680   6.947 -0.1576 -0.0941  0.4420
10476W        W20736  12.600   3.394   7.109  0.0530 -0.0207  0.1108
10477W        W20737  15.307  11.422   1.319  0.0412  0.1443  0.1497
10478W        W20738  15.518   2.405   6.280  0.0770 -0.2492  0.0867
10479W        W20739  14.988   1.189   1.950 -0.2993  0.1520 -0.0400
10480W        W20740   0.873   7.436   1.622  0.0009  0.2212  0.0992
10481W        W20741  14.709  16.091   1.276 -0.2785  0.0798 -0.1074
10482W        W20742  11.399   0.894   7.823 -0.2608  0.3713 -0.0689
10483W        W20743   2.826   1.060   7.397 -0.0822 -0.2486 -0.0058
10484W        W20744   8.764   9.738   7.430  0.0763 -0.0453 -0.0114
10485W        W20745  16.578  15.625   2.167 -0.0767  0.1679  0.1781
10486W        W20746  16.461  13.385   7.404  0.0956  0.3246 -0.2281
10487W        W20747  16.504   2.176   6.533  0.0460  0.2474  0.6170
10488W        W20748  10.479   7.064   7.407 -0.2928 -0.1478 -0.1061
10489W        W20749  11.498   2.011   8.137  0.1455 -0.0941  0.0161
10490W        W20750  12.284   8.447   8.512 -0.1614 -0.0198  0.1913
10491W        W20751  10.735  13.182   1.542 -0.1849 -0.0292  0.0560
10492W        W20752   0.158  15.172   1.347 -0.0725  0.5258 -0.0882
10493W        W20753  10.416  13.974   7.713 -0.0501 -0.4154 -0.1298
10494W        W20754  10.696   4.682   7.942  0.4693  0.0482  0.0384
10495W        W20755  14.619  16.428   0.347 -0.1241 -0.1721 -0.0645
10496W        W20756  10.011   0.233   2.535  0.2608 -0.0235  0.1270
10497W        W20757  15.231  13.715   1.288 -0.2639 -0.0178  0.1745
10498W        W20758   8.167  15.234   6.774  0.0619  0.3062 -0.0836
10499W        W20759  13.330   1.800   1.646 -0.1047 -0.0432  0.2229
10500W        W20760  10.370   8.698   8.387 -0.0636  0.1741  0.0149
10501W        W20761  11.103  14.846   1.780  0.0878  0.2665  0.1766
10502W        W20762   6.540  11.102   7.677  0.1640  0.1839 -0.1556
10503W        W20763  15.647  12.898   8.462 -0.1851 -0.1533  0.1852
10504W        W20764  12.983   1.325   0.114  0.1285  0.0483 -0.3491
10505W        W20765  10.821  13.457   8.235  0.4903 -0.1335 -0.3157
10506W        W20766  11.387  12.663   2.010  0.1110  0.1226  0.1448
10507W        W20767   7.247   9.968   7.533 -0.4917 -0.1995  0.0967
10508W        W20768   6.564   2.826   0.109  0.0528 -0.0699 -0.1492
10509W        W20769  11.687  15.677   0.886  0.0233  0.0334  0.0925
10510W        W20770  11.461   1.068   8.263  0.0389  0.0751  0.1460
10511W        W20771  13.395   2.193   0.320 -0.0883  0.0415  0.1132
10512W        W20772  13.523  10.944   8.423  0.3208 -0.0388  0.3396
10513W        W20773   9.154  16.024   1.834 -0.1256 -0.4538  0.1136
10514W        W20774  10.199  14.833   7.579  0.2120  0.0834  0.2586
10515W        W20775  12.701   0.949   0.576 -0.0124  0.1039 -0.2650
10516W        W20776   1.478  13.711   7.847 -0.1529  0.2294 -0.2213
10517W        W20777  12.380   2.071   7.744 -0.0136 -0.1016 -0.2157
10518W        W20778   9.246   9.696   7.567  0.2628 -0.0766  0.2004
10519W        W20779  16.153  13.072   7.263  0.0642  0.0266  0.0766
10520W        W20780  12.517   2.015   1.958  0.0448 -0.0654 -0.1801
10521W        W20781  12.549  16.381   1.925 -0.0575 -0.0390 -0.1717
10522W        W20782  14.389  11.832   2.753 -0.1168  0.4312  0.4121
10523W        W20783  14.711   5.722   1.824 -0.0157  0.0818  0.0467
10524W        W20784  13.616  11.780   6.845  0.5647 -0.0022 -0.1283
10525W        W20785  16.211  15.485   0.343  0.0541  0.3140  0.0604
10526W        W20786   1.860   1.116   7.761  0.2750  0.0634  0.4434
10527W        W20787  10.584   2.790   0.262 -0.0040 -0.1405  0.0654
10528W        W20788  11.656  10.935   7.672 -0.1105  0.2001 -0.2203
10529W        W20789   1.107  15.189   1.180  0.2929 -0.1846  0.1867
10530W        W20790  13.466   1.229   8.663  0.0471  0.1259  0.1787
10531W        W20791   1.661   0.412   7.892  0.1301 -0.1522 -0.0102
10532W        W20792   4.996  11.281   0.810 -0.0246  0.0641  0.4517
10533W        W20793  13.494  13.496   1.961 -0.0428  0.0647  0.4123
10534W        W20794  10.862  15.170   1.062 -0.0919 -0.0670 -0.2340
10535W        W20795   5.893   5.115   2.747  0.1727  0.1542 -0.0474
10536W        W20796   0.667  16.565   6.622  0.1462  0.0645 -0.1594
10537W        W20797   9.789  15.891   8.464 -0.2134 -0.3413  0.0593
10538W        W20798   7.108   8.269   6.844 -0.3149  0.1861 -0.0188
10539W        W20799  10.019   9.209   8.367 -0.2780 -0.0285  0.0750
10540W        W20800   7.691  15.249   0.444  0.0281 -0.1389 -0.1899
10541W        W20801   7.241  11.378   8.294 -0.0758 -0.1522  0.0987
10542W        W20802   9.810   3.297   8.579 -0.0667  0.1980 -0.1396
10543W        W20803  11.152   2.119   1.480  0.0326  0.2334  0.1051
10544W        W20804  11.515  16.150   6.859  0.3497  0.1647  0.1692
10545W        W20805  11.034   1.946   7.954 -0.0769  0.2106 -0.0102
10546W        W20806   9.504  16.366   8.232 -0.1564  0.2594  0.0073
10547W        W20807   7.716   1.120   6.643  0.0753  0.0369  0.0465
10548W        W20808  16.102  11.180   7.803 -0.0690  0.0721  0.2396
10549W        W20809  14.033   7.946   0.140 -0.3642 -0.0114 -0.0369
10550W        W20810  11.054   0.736   7.509 -0.1348 -0.1082  0.1550
10551W        W20811   9.424  14.641   1.454 -0.3232 -0.0028  0.1725
10552W        W20812  14.576  10.134   7.123  0.1841 -0.2163 -0.0399
10553W        W20813  11.790   8.967   6.696 -0.0070 -0.2379  0.2187
10554W        W20814  12.528  13.668   7.618  0.1217  0.0377  0.2225
10555W        W20815  11.593  10.780   1.655  0.0926 -0.3237 -0.2138
10556W        W20816   5.717  14.885   0.870 -0.1214  0.0035  0.1698
10557W        W20817  13.087  16.393   0.043 -0.0380 -0.3491  0.2217
10558W        W20818  11.063  14.075   1.886  0.0349 -0.0326  0.0430
10559W        W20819  10.145   1.461   8.078  0.0857 -0.0941 -0.0030
10560W        W20820  14.151  16.560   7.436  0.0108 -0.0528  0.1626
10561W        W20821   7.853   1.740   0.308 -0.2012 -0.1114  0.1581
10562W        W20822  11.080   0.159   8.394  0.0749  0.0271  0.0630
10563W        W20823  12.738   0.675   7.489  0.1244  0.0768 -0.2162
10564W        W20824  11.772   2.657   0.511  0.3098 -0.0842 -0.0429
10565W        W20825   3.088   4.436   8.376  0.1009  0.1868 -0.1095
10566W        W20826   0.578  13.919   7.063  0.0911  0.1051 -0.2047
10567W        W20827  12.052  13.533   1.907 -0.1027 -0.2045  0.1374
10568W        W20828  15.084   2.220   5.855 -0.0143 -0.1072  0.1407
10569W        W20829  11.059  15.255   8.525 -0.0807 -0.2455 -0.1342
10570W        W20830   0.198   7.556   7.196  0.0772 -0.0292 -0.1021
10571W        W20831  10.813  14.163   0.656 -0.2055 -0.0095  0.0928
10572W        W20832  12.942   4.377   3.009  0.2989 -0.1349 -0.1305
10573W        W20833  14.742  15.902   7.564  0.0444  0.0162  0.2669
10574W        W20834  10.175   3.623   0.910 -0.3405  0.1435  0.0976
10575W        W20835  11.826  12.873   0.291  0.1157  0.2461  0.0047
10576W        W20836  14.648  14.772   8.069  0.4093 -0.0377  0.1975
10577W        W20837  15.093  12.890   2.080 -0.1551  0.3912 -0.3943
10578W        W20838   8.805  14.603   0.638  0.1935  0.0566  0.1491
10579W        W20839  13.745   7.028   7.590  0.0723 -0.1020 -0.1030
10580W        W20840   9.673  15.649   8.040 -0.0591 -0.0909  0.1999
10581W        W20841  16.382   3.275   7.948  0.1226  0.4532  0.2847
10582W        W20842  12.513  15.594   0.227 -0.0767  0.0128  0.0741
10583W        W20843   9.960  14.978   6.496  0.2777 -0.0424 -0.1555
10584W        W20844  12.739  13.915   8.001  0.0608 -0.0413  0.1278
10585W        W20845   1.327   0.044   7.006 -0.0729 -0.0500 -0.3120
10586W        W20846   7.777  10.599   0.077  0.1280 -0.0425  0.1489
10587W        W20847  12.491   0.984   7.924 -0.2017  0.0897  0.0132
10588W        W20848  10.077  10.554   0.717 -0.0447 -0.0761  0.3206
10589W        W20849   8.993  13.782   8.093  0.0221 -0.1074  0.0416
10590W        W20850  15.811   5.096   1.171  0.0267 -0.0893 -0.3034
10591W        W20851   8.471  15.960   1.350  0.0123 -0.2373  0.0026
10592W        W20852   8.711  16.287   1.683 -0.2588  0.0414  0.0925
10593W        W20853  11.032   1.627   6.799 -0.2872  0.1407  0.0066
10594W        W20854   0.152   2.818   7.956 -0.5090  0.2162  0.1056
10595W        W20855   7.122   1.516   1.988  0.0795  0.0044 -0.0736
10596W        W20856   0.709  14.021   2.130 -0.4086 -0.0183 -0.0436
10597W        W20857   9.694  14.721   2.397 -0.1100 -0.1049 -0.0914
10598W        W20858  10.031  11.525   6.875 -0.0385 -0.1702  0.0950
10599W        W20859  12.210  13.384   1.053  0.1530 -0.0287 -0.0036
10600W        W20860   8.362   3.103   7.290 -0.1196  0.1333 -0.1506
10601W        W20861   8.365  13.901   8.315 -0.2191 -0.2815  0.2308
10602W        W20862   9.172   6.319   0.380  0.1399  0.0066  0.3117
10603W        W20863  14.486  15.665   1.076 -0.0055 -0.2565  0.0018
10604W        W20864  12.297  14.959   6.893  0.0423 -0.2964 -0.0108
10605W        W20865   7.364   0.721   6.542 -0.0171  0.2136 -0.0856
10606W        W20866   8.589  14.254   0.199 -0.0946  0.2623 -0.0578
10607W        W20867   8.349   3.986   0.619 -0.0007 -0.3447 -0.1301
10608W        W20868  12.774   3.369   0.675  0.2389  0.0234  0.1244
10609W        W20869  15.518   1.716   7.675 -0.1193 -0.2230  0.2310
10610W        W20870   9.010  15.992   1.320  0.0329  0.0774 -0.2302
10611W        W20871  11.700  14.180   0.877  0.1908 -0.3579 -0.1019
10612W        W20872   9.488   9.939   1.784  0.1469 -0.0042 -0.2415
10613W        W20873  10.068   1.947   8.270 -0.0010  0.3631 -0.1155
10614W        W20874  10.773   1.442   8.043  0.1420 -0.0358  0.2629
10615W        W20875   2.496   3.639   1.987  0.0734  0.1660  0.0013
10616W        W20876  11.006  11.914   1.009 -0.0195 -0.1306  0.2917
10617W        W20877  16.571   4.259   7.635  0.0723  0.1754 -0.0479
10618W        W20878   0.102   3.878   0.589  0.0374  0.2706  0.2381
10619W        W20879   8.762  15.079   8.039  0.0858 -0.1770  0.0491
10620W        W20880  11.962   7.425   8.337 -0.0102 -0.1868  0.1232
10621W        W20881   7.458  10.508   8.280  0.0615  0.0853 -0.0040
10622W        W20882   7.485  14.131   7.543 -0.2203 -0.1167 -0.0971
10623W        W20883  10.432   2.252   1.185 -0.3670 -0.0349  0.0251
10624W        W20884  15.498  14.137   8.217 -0.1185 -0.1105  0.2366
10625W        W20885  15.567  13.365   1.039  0.0819 -0.1269  0.1259
10626W        W20886   1.767  14.279   2.733 -0.0290 -0.0805 -0.0210
10627W        W20887  10.808   1.887   1.172  0.0210 -0.0448  0.1068
10628W        W20888  13.616   1.917   0.686 -0.0714  0.0508 -0.0844
10629W        W20889   8.989  13.565   1.327  0.1541  0.0218  0.0716
10630W        W20890   8.021   3.742   7.932 -0.0629  0.0387 -0.0581
10631W        W20891  12.491   5.157   2.081 -0.0990  0.0739 -0.1591
10632W        W20892  12.598  15.469   0.876  0.1888  0.0322  0.2750
10633W        W20893   7.170  13.510   8.042  0.0182 -0.1699 -0.2515
10634W        W20894  12.958  14.189   6.895  0.3845 -0.4470  0.2529
10635W        W20895  15.614  15.730   1.859 -0.2726 -0.1720  0.2534
10636W        W20896  15.357  10.784   0.652 -0.1748 -0.1774 -0.0190
10637W        W20897   2.442   1.872   7.779  0.0233  0.1366  0.2494
10638W        W20898  16.043  11.661   0.790  0.0170 -0.0638 -0.1679
10639W        W20899   3.607   0.647   0.087 -0.1092  0.0457  0.0629
10640W        W20900  15.625  14.943   7.602 -0.0715 -0.3264  0.0220
10641W        W20901   2.940  14.110   2.127  0.0774  0.3210 -0.3640
10642W        W20902  14.140  16.334   6.963  0.0410  0.0475 -0.2591
10643W        W20903  15.019  15.595   1.066 -0.1532 -0.0784 -0.1562
10644W        W20904   1.192  13.297   7.931 -0.2224 -0.0832 -0.2667
10645W        W20905   3.177  14.604   1.693 -0.0907 -0.2541 -0.2225
10646W        W20906   0.941  13.303   1.744  0.1610  0.1418  0.0340
10647W        W20907  11.362  11.070   1.350 -0.0867  0.1801 -0.0778
10648W        W20908  13.026  12.217   0.307 -0.2351 -0.0142 -0.1211
10649W        W20909  14.254  14.709   7.762 -0.1209  0.1019 -0.0714
10650W        W20910  10.727  12.047   7.820 -0.0117 -0.0710 -0.0297
10651W        W20911  16.083   1.235   6.476 -0.0614 -0.2043 -0.2055
10652W        W20912  15.598  16.066   2.268 -0.0909 -0.0609 -0.0081
10653W        W20913  11.636   0.015   0.614 -0.1015  0.2401  0.0852
10654W        W20914  13.759  10.057   7.080  0.2107  0.0522 -0.1418
10655W        W20915   4.763  15.035   0.755  0.2847 -0.1723 -0.1880
10656W        W20916  15.153   9.314   0.820 -0.3192 -0.0219 -0.2644
10657W        W20917  12.907  11.491   8.123  0.2056  0.4405  0.1310
10658W        W20918  13.272  10.214   1.744 -0.1787 -0.2527 -0.1865
10659W        W20919  13.951   5.820   6.747  0.0390 -0.1565 -0.2779
10660W        W20920  14.074  13.525   6.893 -0.0864  0.0300 -0.0390
10661W        W20921  14.637   6.324   7.822 -0.0558 -0.2113  0.0268
10662W        W20922   5.691  11.128   1.300  0.1270  0.0316 -0.0284
10663W        W20923  14.040  14.426   8.090  0.0930 -0.0656 -0.0115
10664W        W20924  14.349   3.831   0.292  0.0760 -0.0099  0.3206
10665W        W20925  14.003   3.246   2.446  0.3236  0.1565  0.0279
10666W        W20926   1.714   1.925   7.265 -0.0102  0.0240 -0.0798
10667W        W20927  14.614  14.720   1.624  0.1113 -0.4177  0.1768
10668W        W20928   1.771  12.508   6.027 -0.0418 -0.0079 -0.0011
10669W        W20929   0.892  15.150   0.163 -0.1301  0.0261 -0.1820
10670W        W20930   4.289  14.421   7.771 -0.1343  0.2002 -0.0404
10671W        W20931  14.533   0.944   1.063 -0.2313  0.0356 -0.1537
10672W        W20932   3.155  14.458   6.527 -0.0608  0.1127 -0.1285
10673W        W20933  14.980  14.184   6.946 -0.0618 -0.1130 -0.1618
10674W        W20934   4.871   0.196   0.745 -0.1532 -0.1172  0.0636
10675W        W20935   7.483  14.928   1.055 -0.0145 -0.1924  0.3391
10676W        W20936   9.796   0.242   0.974 -0.2210  0.1892  0.2331
10677W        W20937   1.177  14.883   6.393 -0.1631 -0.0269 -0.0585
10678W        W20938  14.996   2.197   1.967 -0.0145  0.1688 -0.2501
10679W        W20939  12.666   0.162   8.129  0.0353  0.1541  0.1432
10680W        W20940   5.250  15.077   0.960 -0.0409 -0.1287  0.4222
10681W        W20941  10.334  10.258   1.811 -0.4577  0.0883  0.5352
10682W        W20942  14.874   4.774   8.634 -0.1398  0.2437 -0.0942
10683W        W20943   1.710  13.293   6.630  0.0582  0.1682  0.3149
10684W        W20944   9.250   0.354   7.288  0.1097 -0.0663 -0.0405
10685W        W20945   4.156  12.155   1.090 -0.0858 -0.2382 -0.1357
10686W        W20946  12.856   7.244   2.713  0.4955  0.0195  0.0139
10687W        W20947  10.377  14.344   7.176  0.1876 -0.0471  0.3432
10688W        W20948  11.550  15.493   0.049 -0.3523  0.2299  0.0998
10689W        W20949   2.595  15.851   8.058 -0.2867  0.3740 -0.4574
10690W        W20950  15.747   3.773   0.720 -0.2343 -0.0469 -0.0990
10691W        W20951  15.369  12.745   1.666 -0.2116  0.0360  0.2239
10692W        W20952  13.693  12.640   6.697  0.0503 -0.0952 -0.0562
10693W        W20953  14.438  16.061   0.600  0.0300  0.2131 -0.0305
10694W        W20954  10.309  14.522   6.719 -0.3353 -0.1531 -0.3298
10695W        W20955   3.074  10.679   7.099 -0.1379  0.0735 -0.0886
10696W        W20956   4.581  13.682   8.122  0.0739 -0.1531 -0.2162
10697W        W20957   9.133  16.228   7.328 -0.2906  0.1855 -0.0234
10698W        W20958   0.884  11.934   7.075  0.0523 -0.0674  0.1608
10699W        W20959   1.672   4.566   7.903  0.2018  0.2477  0.1540
10700W        W20960  16.264   3.916   2.295 -0.3542 -0.1226 -0.0635
10701W        W20961  16.285  15.135   8.677  0.1014  0.1506 -0.0265
10702W        W20962   1.169  14.783   1.572  0.2678  0.0291 -0.1099
10703W        W20963  13.859   0.285   1.291 -0.4148  0.0835 -0.1460
10704W        W20964  15.646  12.829   7.931  0.3048  0.2813 -0.1375
10705W        W20965   9.385  15.286   0.933 -0.1898 -0.1517  0.1135
10706W        W20966  12.469  15.719   7.659 -0.1898  0.3572  0.1204
10707W        W20967  14.169  11.728   8.650 -0.1273  0.0452 -0.2610
10708W        W20968  14.983  15.172   2.229  0.0439 -0.1832  0.1042
10709W        W20969   9.844   0.428   6.460  0.2152  0.0520 -0.0413
10710W        W20970  13.028  13.451   2.956 -0.0253  0.0249  0.3119
10711W        W20971  13.264  14.861   1.090  0.1681  0.1610  0.1046
10712W        W20972   1.199  15.783   7.501 -0.2028 -0.0517 -0.3333
10713W        W20973  11.639  15.259   0.582  0.0703  0.0293  0.0956
10714W        W20974  11.360   3.076   1.495  0.0268  0.0715 -0.0956
10715W        W20975   0.221   2.527   1.576 -0.1524 -0.1567  0.1499
10716W        W20976   9.477   1.176   0.092  0.2490 -0.0090  0.2386
10717W        W20977   5.457  10.462   7.425 -0.0152  0.0717 -0.2522
10718W        W20978  15.221  16.005   1.525 -0.0017  0.2127 -0.0799
10719W        W20979  10.590  12.304   7.386 -0.1107  0.2143 -0.2409
10720W        W20980   1.821  15.319   8.524  0.5118  0.0559  0.0530
10721W        W20981  15.331  13.932   1.712 -0.1495  0.0548  0.0596
10722W        W20982   6.212  12.916   7.268  0.3790 -0.0491  0.0224
10723W        W20983   0.598  13.974   0.422  0.0608  0.2941  0.4190
10724W        W20984  14.182   7.914   1.489 -0.1760 -0.1661  0.4859
10725W        W20985  15.002  15.097   2.713  0.0687 -0.0735  0.1780
10726W        W20986  12.296  13.332   7.247  0.2738  0.0412 -0.2052
10727W        W20987  13.189  14.631   0.638  0.1646 -0.1322  0.0457
10728W        W20988  12.741   0.529   0.404 -0.1040 -0.2550 -0.1810
10729W        W20989   3.833  12.410   1.386  0.2760 -0.1403 -0.0711
10730W        W20990   9.701  16.266   7.624 -0.1723 -0.0013  0.3176
10731W        W20991   0.621   2.875   6.881  0.1488  0.2981  0.3280
10732W        W20992   3.003  13.867   6.302  0.1623 -0.1213 -0.3178
10733W        W20993   0.676  12.472   1.950  0.1072 -0.1682  0.0588
10734W        W20994  11.564  15.563   2.300  0.3367 -0.0610  0.1234
10735W        W20995  16.401   2.034   1.561 -0.2582 -0.0898  0.1798
10736W        W20996  13.968   0.863   2.776 -0.0625  0.0106 -0.2561
10737W        W20997  15.669  11.992   2.146  0.0756 -0.1589 -0.3941
10738W        W20998  14.537  15.445   7.548  0.0188  0.0472  0.1317
10739W        W20999  13.075   0.137   1.815  0.0289  0.0451 -0.0442
10740W        W21000  15.438   1.388   2.424  0.0340  0.0761 -0.1159
10741W        W21001   7.550   2.160   0.352 -0.5536 -0.1598  0.2219
10742W        W21002  15.778   2.517   6.665 -0.3848 -0.0701 -0.2530
10743W        W21003   2.558   0.003   2.460 -0.2729 -0.3299  0.2637
10744W        W21004   2.099   0.923   0.877  0.0409 -0.0696 -0.0355
10745W        W21005   8.621   4.399   0.775  0.0482  0.0187  0.0859
10746W        W21006  16.117   8.908   7.595  0.2143 -0.2111  0.0494
10747W        W21007  15.030  12.970   8.568  0.0466 -0.1305  0.1422
10748W        W21008   0.764  15.952   7.801  0.1353  0.0323 -0.0451
10749W        W21009  10.993   3.592   7.818 -0.2151  0.2106 -0.0015
10750W        W21010  14.450   0.834   2.138 -0.0345 -0.2734 -0.2646
10751W        W21011   0.280   1.101   0.195  0.4494 -0.1592 -0.1556
10752W        W21012   5.141  15.213   8.399  0.3395  0.1233 -0.1576
10753W        W21013   9.087  10.797   0.980 -0.1139 -0.0285 -0.1437
10754W        W21014   9.797  10.513   8.604  0.2914 -0.1142  0.1129
10755W        W21015   5.756  13.556   0.145 -0.2019  0.3771 -0.0340
10756W        W21016  16.134   5.639   0.554  0.1063  0.3431 -0.2566
10757W        W21017   2.782  16.245   6.735 -0.0203  0.1251  0.1318
10758W        W21018   6.333   0.228   2.030  0.0476  0.0611 -0.0910
10759W        W21019   7.500  13.617   6.164  0.2245  0.4618 -0.0811
10760W        W21020   3.363   1.363   0.979  0.4044  0.0418 -0.2189
10761W        W21021   0.996  15.816   0.889  0.3919 -0.0028 -0.0090
10762W        W21022   2.297   5.269   0.792  0.0782  0.2190  0.0818
10763W        W21023  15.945   1.247   1.847 -0.0650  0.0365  0.2988
10764W        W21024   3.748  14.450   7.826  0.2153 -0.0735 -0.0001
10765W        W21025   1.426  13.686   1.006  0.1113 -0.0191 -0.0212
10766W        W21026   1.370   1.213   7.506 -0.0973  0.0973 -0.0777
10767W        W21027   1.377  12.392   1.442  0.0470 -0.1595  0.0282
10768W        W21028  16.402   0.089   0.274 -0.4174  0.0156  0.2776
10769W        W21029   1.335   1.667   6.923  0.2424  0.2525  0.1614
10770W        W21030   0.258   3.659   8.567  0.1728 -0.1468 -0.0099
10771W        W21031   3.089   5.437   0.960  0.2417  0.0699  0.1729
10772W        W21032  12.895   5.340   2.336 -0.0900  0.3475  0.2609
10773W        W21033  15.440   1.447   7.105  0.0414  0.1052  0.0359
10774W        W21034   8.641  13.882   0.521 -0.0308  0.0886  0.1065
10775W        W21035   1.872  14.887   0.162 -0.0395  0.0383 -0.0909
10776W        W21036   0.095  14.781   0.078  0.2593  0.1444  0.2208
10777W        W21037   0.002  16.111   1.952  0.1153 -0.3306 -0.0141
10778W        W21038   6.275   5.590   1.330 -0.1290  0.1955 -0.2290
10779W        W21039  10.254   6.384   5.788  0.0956 -0.1485 -0.0203
10780W        W21040  15.903  14.645   7.116  0.1601  0.0103  0.3950
10781W        W21041   2.363   4.782   0.950 -0.0666 -0.1352 -0.0257
10782W        W21042  15.270   3.349   1.768  0.0668 -0.1730  0.0796
10783W        W21043   4.579  14.794   6.692  0.0479  0.1281  0.1021
10784W        W21044   5.973   1.621   1.474 -0.2525  0.1196 -0.1364
10785W        W21045   5.537  16.015   0.412  0.2647  0.0558 -0.4351
10786W        W21046   4.742   3.543   7.921 -0.1517  0.4220 -0.1150
10787W        W21047   6.681   6.397   8.199 -0.2166  0.1123 -0.2139
10788W        W21048   4.086  15.197   7.163  0.3591  0.1181 -0.4447
10789W        W21049   0.330   0.416   0.253 -0.0337  0.1515 -0.1775
10790W        W21050   4.131   3.597   7.336 -0.2747 -0.2697  0.0193
10791W        W21051   3.643   1.862   8.143  0.0004  0.0185  0.1066
10792W        W21052   8.175  15.748   1.670 -0.0172 -0.0710 -0.1557
10793W        W21053   8.682  12.742   6.796  0.1972 -0.1939 -0.0003
10794W        W21054   4.087   4.546   6.247 -0.1157 -0.3639 -0.2322
10795W        W21055  10.072  16.261   6.650 -0.2588  0.1056 -0.0627
10796W        W21056   8.495  14.693   1.036 -0.0963 -0.0433  0.0831
10797W        W21057   8.143   4.252   2.558 -0.0171  0.3863  0.0437
10798W        W21058  14.986   2.311   7.411  0.0652  0.0355 -0.1277
10799W        W21059   8.352   4.821   0.080  0.3087  0.3953  0.0035
10800W        W21060  12.229   2.697   0.478 -0.0266  0.0830  0.0819
10801W        W21061   5.326  16.415   7.341 -0.4109 -0.0043  0.0932
10802W        W21062  11.630   3.472   8.443  0.1258  0.0831  0.2470
10803W        W21063  13.670   2.048   7.838 -0.0233  0.0398  0.1038
10804W        W21064   8.521  15.729   0.422  0.1465 -0.1037 -0.1847
10805W        W21065  13.890   2.836   7.332  0.0668 -0.0758 -0.1936
10806W        W21066   7.976  15.796   1.200 -0.2039 -0.3823 -0.0044
10807W        W21067  10.815   6.647   0.131 -0.1708 -0.0362  0.0237
10808W        W21068   6.024   2.679   6.975 -0.1153  0.0337 -0.0332
10809W        W21069  13.873   2.122   0.031 -0.3132 -0.0275 -0.2402
10810W        W21070   5.071   2.471   7.265  0.2403  0.0941  0.1713
10811W        W21071   6.313   5.791   1.799  0.1429  0.1010 -0.0241
10812W        W21072  13.349   0.832   7.866 -0.0291  0.0346  0.0080
10813W        W21073  12.747   3.161   0.130  0.0227 -0.1823  0.0483
10814W        W21074  14.852   3.307   0.794  0.1687  0.0078  0.4313
10815W        W21075  11.169   4.583   2.820  0.1110 -0.0944  0.1329
10816W        W21076  10.583   2.902   6.040 -0.3449  0.1024 -0.1109
10817W        W21077  12.527   6.708   7.556  0.0047  0.3754  0.0043
10818W        W21078  12.948   0.526   7.902  0.0433 -0.0590 -0.3375
10819W        W21079  11.956  15.179   7.201  0.2170 -0.0498  0.2748
10820W        W21080  13.231  13.525   1.519  0.0575 -0.1660  0.1428
10821W        W21081  13.702   2.339   8.274 -0.0969 -0.0096  0.1190
10822W        W21082   8.840   1.928   0.150 -0.0837 -0.1963  0.2992
10823W        W21083  11.784   5.781   0.815 -0.3802  0.0378  0.0400
10824W        W21084   7.839  14.827   6.813 -0.2846  0.1427 -0.1215
10825W        W21085  13.274  14.612   7.811  0.1550  0.1824  0.2461
10826W        W21086  13.899   5.248   1.335 -0.1037  0.0069  0.1499
10827W        W21087  12.210   2.393   1.302 -0.4969  0.0330  0.0634
10828W        W21088  13.977  14.215   7.165  0.0590 -0.1804 -0.0286
10829W        W21089  13.692   4.955   7.222  0.1798  0.2696 -0.0319
10830W        W21090  14.164   6.391   1.545 -0.0039 -0.3652  0.2468
10831W        W21091   9.209   5.096   0.267 -0.0658  0.2885  0.2471
10832W        W21092   0.153   4.477   1.734  0.0867  0.0975 -0.1701
10833W        W21093  15.446   5.869   0.234  0.0287  0.0646  0.0621
10834W        W21094  16.562   2.984   0.531 -0.1672  0.0102  0.0236
10835W        W21095  14.457  15.225   0.842  0.1767  0.0269  0.0869
10836W        W21096   2.921  14.107   7.691  0.1910  0.1206  0.0904
10837W        W21097   0.545   1.684   8.197 -0.1943 -0.0386 -0.1030
10838W        W21098   3.120   3.639   1.341  0.2089 -0.2935  0.0416
10839W        W21099   1.670  13.239   0.843  0.2081 -0.2733 -0.1306
10840W        W21100   0.248  15.145   0.860  0.5102  0.2018 -0.0342
10841W        W21101   5.869   9.169   7.872 -0.0040  0.1009  0.0367
10842W        W21102  14.168   3.497   6.370 -0.0659 -0.3238  0.2664
10843W        W21103  11.670   1.349   7.263  0.2704  0.1894 -0.2277
10844W        W21104   0.224  14.177   7.414 -0.0610  0.1306 -0.0120
10845W        W21105  13.237   4.545   6.939  0.0601 -0.1729  0.3340
10846W        W21106   0.881   0.828   8.203 -0.0910 -0.2424  0.2016
10847W        W21107   2.044   6.839   0.710  0.0750  0.0413  0.0189
10848W        W21108   7.886   2.707   0.928 -0.1906 -0.1753 -0.0560
10849W        W21109  12.875   6.633   1.851  0.0453  0.4431 -0.0716
10850W        W21110  14.853   6.744   7.758 -0.0325  0.2779  0.1130
10851W        W21111  16.291   5.011   1.306 -0.0460  0.1238  0.1420
10852W        W21112  15.178   4.217   6.762  0.0843  0.1678  0.3575
10853W        W21113   6.428  10.345   7.740 -0.1404 -0.0097  0.0315
10854W        W21114   0.247   5.888   8.505  0.1105 -0.6546 -0.2415
10855W        W21115   2.602   4.826   0.036 -0.0998 -0.1389 -0.1550
10856W        W21116   3.252   2.684   7.166  0.4640  0.0655 -0.1793
10857W        W21117  16.347   6.207   6.201 -0.3230  0.1737  0.1657
10858W        W21118   0.984   9.697   6.874 -0.0753  0.1167 -0.0090
10859W        W21119  12.136  12.541   0.520 -0.0599 -0.1847  0.1579
10860W        W21120   1.729   3.661   7.442  0.0094 -0.0594 -0.2200
10861W        W21121   0.432   7.586   1.047  0.2570  0.0604  0.1140
10862W        W21122   0.255   7.375   8.286 -0.0031  0.0255 -0.0561
10863W        W21123   5.660  13.977   8.025  0.0219  0.1524 -0.3061
10864W        W21124  11.230  11.262   0.601 -0.0610 -0.2981 -0.1828
10865W        W21125  10.872   8.363   7.316 -0.2199  0.1558  0.0479
10866W        W21126   0.626   4.971   5.995 -0.0259  0.0887  0.1886
10867W        W21127   3.717   6.112   7.026 -0.2407 -0.0963 -0.1898
10868W        W21128   1.818   1.589   8.451 -0.2438 -0.0344  0.0308
10869W        W21129   3.733   5.242   6.533 -0.1779 -0.0819 -0.2245
10870W        W21130   3.033   4.147   7.950 -0.0374  0.0346 -0.0498
10871W        W21131   6.137  14.555   0.065 -0.0641  0.1835 -0.1126
10872W        W21132  11.974   2.094   8.392  0.2078 -0.2900  0.0152
10873W        W21133   6.815   6.966   6.837  0.0152  0.0813 -0.0440
10874W        W21134   1.208   4.464   8.151 -0.0343 -0.3801 -0.1482
10875W        W21135   6.157   3.398   7.517 -0.4947 -0.2319 -0.2938
10876W        W21136   7.680   2.122   7.852  0.1673  0.1161  0.1761
10877W        W21137  14.916   6.409   6.332 -0.0373 -0.0747 -0.0951
10878W        W21138   4.373   3.121   7.828 -0.0080  0.1261  0.2331
10879W        W21139   3.726  16.526   0.804 -0.4755  0.1596 -0.1865
10880W        W21140   1.257  16.001   0.422 -0.0635 -0.0845  0.1181
10881W        W21141   6.526   1.537   1.378  0.1206 -0.0164 -0.1016
10882W        W21142  10.311   2.841   7.094  0.3519 -0.0271  0.0782
10883W        W21143  14.321   7.842   7.178  0.0657  0.0598 -0.0222
10884W        W21144   5.328   6.186   8.328  0.1130 -0.2307 -0.0460
10885W        W21145  11.041   7.013   6.722  0.0221  0.2674  0.2394
10886W        W21146   5.128   6.786   6.239 -0.2071  0.0584  0.1350
10887W        W21147   2.157   9.850   6.237  0.1684  0.0890 -0.1566
10888W        W21148  10.324   1.503   7.369 -0.2049  0.2049 -0.4127
10889W        W21149  15.877   3.646   8.133 -0.1294 -0.1805 -0.0308
10890W        W21150   9.222   9.741   1.112 -0.2090  0.2701 -0.1161
10891W        W21151  10.640   4.887   6.880  0.0113  0.1831 -0.1641
10892W        W21152   4.599  15.964   0.933 -0.0318 -0.3080 -0.3019
10893W        W21153   5.388   6.523   1.576  0.3286  0.3714 -0.0401
10894W        W21154  12.005   4.278   1.406  0.1717  0.1624  0.1027
10895W        W21155   3.801   8.102   1.608  0.0466  0.1255 -0.1329
10896W        W21156   9.199  11.462   0.359 -0.2105 -0.0474  0.1076
10897W        W21157   7.534   7.475   6.882 -0.0129 -0.1835  0.0122
10898W        W21158  13.517  13.118   1.548  0.0676  0.2414  0.1646
10899W        W21159   6.200  10.765   7.505 -0.2417  0.2061  0.2088
10900W        W21160   8.036   4.116   2.042  0.0656 -0.1012 -0.0752
10901W        W21161  10.811   4.154   8.007  0.2314 -0.5134 -0.2004
10902W        W21162  10.634   3.288   1.482  0.1113 -0.1669  0.1501
10903W        W21163   5.775   1.604   7.490 -0.2758  0.1106 -0.1751
10904W        W21164   1.156   0.298   0.780 -0.1095  0.0180  0.4196
10905W        W21165   7.007   8.423   7.330  0.0149  0.3643  0.4563
10906W        W21166  10.337   3.061   1.079  0.1870 -0.0089 -0.1482
10907W        W21167   3.911   9.952   6.471  0.0021  0.2742  0.3189
10908W        W21168  15.168   6.219   7.700  0.2532  0.3702  0.0221
10909W        W21169   8.295  12.399   6.615  0.0413 -0.0112  0.3099
10910W        W21170  10.544   5.707   1.071 -0.2208 -0.1235 -0.1434
10911W        W21171   7.403   8.074   7.567 -0.2442  0.0737 -0.2331
10912W        W21172  10.934   1.114   6.636 -0.2638 -0.1077 -0.0780
10913W        W21173   2.725   9.347   6.616  0.3157 -0.0349 -0.2038
10914W        W21174   8.203   7.389   1.448 -0.0000 -0.1430  0.3702
10915W        W21175   5.117  15.421   7.136 -0.0589 -0.0127  0.1842
10916W        W21176   1.142   5.826   7.993  0.0511 -0.0818 -0.0099
10917W        W21177  10.719   1.644   1.592  0.0731 -0.2282 -0.2009
10918W        W21178  15.922   8.931   8.252 -0.1997  0.4286 -0.0178
10919W        W21179   9.479   9.256   7.681  0.2665 -0.1635  0.2953
10920W        W21180   9.359   0.548   0.040 -0.0268  0.0418 -0.1046
10921W        W21181   9.898   3.880   0.477 -0.1900  0.1887 -0.0849
10922W        W21182  15.353   6.268   1.570  0.0722 -0.0333  0.2767
10923W        W21183  11.386   8.129   8.509  0.2909 -0.0865 -0.3766
10924W        W21184  12.085   0.987   7.540  0.1598 -0.0509  0.2287
10925W        W21185   9.122   8.430   7.234  0.0069  0.1734 -0.1323
10926W        W21186  12.598   8.172   1.161  0.2948  0.0355 -0.3584
10927W        W21187   0.455   6.348   8.270 -0.2818  0.0955 -0.0373
10928W        W21188  13.743   4.508   6.922 -0.2831 -0.0828  0.0316
10929W        W21189  13.095   5.879   2.300  0.1378  0.0695 -0.3403
10930W        W21190  10.867   8.394   1.870 -0.1760  0.1829 -0.4272
10931W        W21191   1.286   4.021   1.936  0.0511  0.2052  0.3368
10932W        W21192  11.570   8.145   0.278  0.1088  0.0547 -0.0717
10933W        W21193   2.127   1.816   0.307  0.4213 -0.0388 -0.0707
10934W        W21194  15.902   2.066   0.187  0.0508 -0.2947  0.2931
10935W        W21195   2.252   6.229   1.581  0.3008 -0.0596 -0.1300
10936W        W21196  16.389  11.903   2.001  0.3173 -0.0184  0.2504
10937W        W21197   3.030   6.767   7.988 -0.0015 -0.0120  0.0508
10938W        W21198   1.513  15.818   0.868 -0.1027 -0.1670 -0.3118
10939W        W21199  10.305   2.590   2.781  0.3261  0.0024 -0.1047
10940W        W21200   1.991   3.517   6.064  0.2313  0.1471 -0.1896
10941W        W21201  10.450   8.549   1.636  0.3009 -0.1115  0.1699
10942W        W21202   3.010   9.211   1.352 -0.1406  0.3551  0.3050
10943W        W21203  13.843  10.754   0.681  0.0752 -0.2788 -0.3258
10944W        W21204   5.344   9.047   7.788  0.0903  0.0836  0.2742
10945W        W21205   5.077  13.191   6.851 -0.0610  0.1982 -0.2131
10946W        W21206  15.862   8.370   7.448  0.3671  0.0086  0.0876
10947W        W21207   1.851   7.731   0.171  0.0038 -0.1099 -0.1832
10948W        W21208   0.953   9.726   0.848 -0.0424  0.0678 -0.0259
10949W        W21209  15.514   7.870   2.720  0.0870 -0.2124  0.4259
10950W        W21210   1.393  10.589   7.905  0.0170 -0.3188  0.4079
10951W        W21211   0.161  13.711   0.430  0.0808 -0.0577 -0.1772
10952W        W21212   4.194   4.847   6.813  0.3605  0.3632 -0.3953
10953W        W21213   3.424  12.366   2.229 -0.0143 -0.0993 -0.1297
10954W        W21214   5.673   3.922   0.505  0.0621  0.1715  0.0457
10955W        W21215   0.906  12.633   6.936  0.1047  0.0157  0.0527
10956W        W21216   2.000  11.133   0.836 -0.2016  0.0441 -0.2767
10957W        W21217   0.504   7.848   8.036 -0.2075  0.2200 -0.0381
10958W        W21218   1.472   9.520   6.994 -0.0622 -0.1517 -0.0308
10959W        W21219  14.021  13.749   7.358  0.1823  0.1913  0.0481
10960W        W21220  11.337   9.064   0.372  0.1631  0.2695  0.3285
10961W        W21221   8.276   5.551   1.808  0.0612 -0.1242 -0.0881
10962W        W21222  15.514   8.838   2.072  0.1168 -0.1123 -0.0037
10963W        W21223   7.259  12.657   1.334  0.2858 -0.0841 -0.0681
10964W        W21224   0.218   9.400   0.797  0.0753  0.0377 -0.0707
10965W        W21225   4.535   8.204   8.634  0.2348 -0.1391  0.2494
10966W        W21226   7.527   7.998   6.923  0.2245  0.3448  0.2128
10967W        W21227   4.296   7.485   7.573 -0.0642 -0.1322 -0.2851
10968W        W21228   3.860   4.411   1.406  0.1248 -0.1373 -0.2561
10969W        W21229   2.440  10.797   7.637  0.3571  0.2760  0.0838
10970W        W21230   0.744  12.344   6.226  0.2624  0.2143 -0.3290
10971W        W21231   4.944   1.640   0.325  0.0209  0.2435  0.1138
10972W        W21232   7.364  13.904   2.086 -0.0378  0.3185  0.0634
10973W        W21233   8.223   4.964   2.555 -0.0395  0.1590 -0.1137
10974W        W21234   2.448   8.165   1.491  0.0981  0.0186  0.0642
10975W        W21235   6.640   8.438   6.770 -0.1223  0.0245 -0.0782
10976W        W21236   3.186   7.383   6.846  0.1489 -0.1012  0.0528
10977W        W21237   1.391   6.146   8.394  0.0007  0.0096 -0.2251
10978W        W21238   7.497   4.149   7.351 -0.0620  0.2998 -0.0240
10979W        W21239   4.367   8.176   1.005 -0.1079  0.1620  0.1793
10980W        W21240  15.309   2.417   7.965 -0.0283  0.1406  0.3666
10981W        W21241   0.983   7.737   6.656 -0.1074 -0.0133  0.0164
10982W        W21242   3.353   4.700   1.716  0.0642 -0.2619 -0.3157
10983W        W21243   7.607   5.286   7.605 -0.2519 -0.2156 -0.1689
10984W        W21244   6.091   3.010   2.719 -0.0438  0.1387  0.1407
10985W        W21245   8.296   7.066   7.116  0.3512  0.0789 -0.1330
10986W        W21246   4.936  11.511   1.839 -0.2057 -0.3423 -0.1240
10987W        W21247   2.334   4.907   8.273  0.1099 -0.2112  0.0659
10988W        W21248  10.640   7.262   0.620 -0.0637 -0.1327  0.5005
10989W        W21249  13.608   3.527   2.333 -0.0640 -0.0125  0.3696
10990W        W21250   5.841  11.796   0.930  0.1427  0.1407 -0.0551
10991W        W21251   9.451   4.397   7.923 -0.0386 -0.3538  0.1258
10992W        W21252   0.054   8.082   8.208 -0.2010 -0.1622 -0.1088
10993W        W21253  10.153  12.396   8.335  0.1833  0.0031  0.3187
10994W        W21254   8.924   7.608   7.039  0.2133  0.0360  0.1635
10995W        W21255  11.353  10.689   7.382 -0.1087  0.3290  0.1896
10996W        W21256   4.582  13.572   0.909  0.0046  0.0531  0.3843
10997W        W21257   7.066   6.190   0.846 -0.0472  0.2660 -0.0454
10998W        W21258  12.855  14.749   0.282 -0.2656  0.0932 -0.0835
10999W        W21259   8.191  14.000   0.131  0.0084  0.1530 -0.2665
11000W        W21260   3.845  10.925   0.864 -0.2552  0.0345  0.1585
11001W        W21261  13.216  11.151   1.795  0.1212 -0.1130  0.0225
11002W        W21262   9.708   0.226   7.412  0.0498  0.1458 -0.2008
11003W        W21263   3.894   5.855   1.158 -0.1956  0.0526 -0.4588
11004W        W21264  13.063   1.066   7.507  0.1492  0.1841 -0.0050
11005W        W21265  12.897   8.037   0.844  0.3804 -0.2749  0.0413
11006W        W21266  15.826   0.003   1.546  0.2615 -0.2848  0.1033
11007W        W21267  15.028   0.130   2.141 -0.2179  0.0362  0.1732
11008W        W21268  10.336  10.235   0.986  0.0669 -0.1264  0.2864
11009W        W21269  11.503   7.181   8.582  0.0047 -0.4580 -0.2463
11010W        W21270  14.108   6.892   6.803 -0.0730  0.1715  0.0552
11011W        W21271   5.016  11.546   5.708  0.2723 -0.1634  0.0344
11012W        W21272  10.971   6.629   1.098 -0.1434 -0.3770  0.4043
11013W        W21273  11.661   9.771   0.990  0.0774 -0.0837 -0.1788
11014W        W21274   9.103   7.576   0.157  0.0397 -0.1101  0.1588
11015W        W21275   8.348  10.519   7.074 -0.1000 -0.0285 -0.1353
11016W        W21276  11.150   9.536   0.332 -0.2835  0.3250 -0.3635
11017W        W21277  11.374   2.559   1.283 -0.0573 -0.3550  0.1647
11018W        W21278  12.890   7.670   0.132 -0.1832 -0.0721  0.1399
11019W        W21279  11.769   7.358   0.700 -0.1052  0.0283  0.1313
11020W        W21280  12.444   2.306   7.295  0.1233 -0.1421 -0.1907
11021W        W21281  14.266   6.563   2.555 -0.2551  0.1055  0.3257
11022W        W21282   6.124  12.334   8.512 -0.2642 -0.2194  0.2167
11023W        W21283  13.075  13.644   0.676 -0.0331  0.2566 -0.2379
11024W        W21284  16.435   3.365   2.391  0.0071  0.2774  0.1488
11025W        W21285   6.059   7.406   7.590  0.1033 -0.0668 -0.0422
11026W        W21286   1.296   7.283   7.322  0.0394  0.0947 -0.3186
11027W        W21287   2.012  13.548   0.961  0.1692 -0.0086  0.1573
11028W        W21288   0.531   3.899   0.244  0.0448  0.1937 -0.1996
11029W        W21289   1.624  13.108   0.355  0.0024  0.0782 -0.2720
11030W        W21290   9.650  12.358   8.432  0.1202 -0.0656 -0.1445
11031W        W21291   4.566  12.030   6.765 -0.1929 -0.2847 -0.0394
11032W        W21292  14.246  13.451   1.308  0.1798 -0.0806  0.2261
11033W        W21293   0.122   9.473   0.002 -0.2222 -0.3195 -0.3425
11034W        W21294   3.370   1.319   8.058 -0.0594  0.1285  0.1001
11035W        W21295  15.480  10.952   1.354  0.1386  0.0065  0.0523
11036W        W21296   0.209   2.332   1.117  0.3684  0.3656  0.2835
11037W        W21297   1.157  11.897   0.570  0.1882 -0.3884 -0.0984
11038W        W21298   2.253   5.246   0.038  0.1228 -0.1154  0.0436
11039W        W21299  15.420  14.535   7.291  0.2587  0.0340 -0.0433
11040W        W21300   5.190   8.861   8.660 -0.0586  0.1842  0.0487
11041W        W21301   4.175   8.914   7.256 -0.0117 -0.1062 -0.0254
11042W        W21302  11.284  12.497   6.145 -0.1472  0.1212  0.1702
11043W        W21303   2.979  11.345   7.073 -0.2630  0.1731 -0.2414
11044W        W21304  16.079  13.959   1.061 -0.0151 -0.1006 -0.0502
11045W        W21305   2.810  11.485   6.628  0.1030  0.0390  0.3464
11046W        W21306   6.076   7.586   1.180 -0.1317 -0.0951  0.0996
11047W        W21307  15.726   0.056   8.604 -0.1511  0.0986 -0.0815
11048W        W21308   1.049  11.591   2.228 -0.1874  0.2644  0.1111
11049W        W21309   6.002  15.976   8.409  0.1859 -0.1348 -0.2699
11050W        W21310   0.728   9.374   8.593  0.3493  0.0609  0.0092
11051W        W21311   2.564   9.296   7.787  0.1402  0.2328 -0.0860
11052W        W21312   3.699   9.962   0.932 -0.0291  0.1717 -0.2866
11053W        W21313   5.761  10.388   0.834 -0.4902  0.3639 -0.2512
11054W        W21314   3.485  10.401   7.468  0.1856  0.1043  0.0343
11055W        W21315  14.893  15.294   0.102 -0.2483  0.0619 -0.2976
11056W        W21316  12.240  10.647   7.761 -0.0578  0.2469 -0.2470
11057W        W21317   0.958  15.153   6.763 -0.0723 -0.0374  0.2591
11058W        W21318   0.494  14.813   6.878  0.1246  0.2802  0.1275
11059W        W21319   3.247   7.491   1.555  0.2003  0.0131 -0.0572
11060W        W21320  15.216  10.234   7.822 -0.1853  0.3150  0.3078
11061W        W21321   7.714  13.527   0.238 -0.1161 -0.1781  0.0819
11062W        W21322   3.750   7.646   2.685  0.2818  0.2256  0.2311
11063W        W21323   6.272  10.156   0.599 -0.0218 -0.0887 -0.1328
11064W        W21324   3.431  15.400   6.762  0.3127  0.1336  0.1403
11065W        W21325   5.083  15.312   7.878 -0.4444  0.0103  0.2447
11066W        W21326  10.426   8.935   0.854  0.1577 -0.0800  0.1043
11067W        W21327   4.712  11.730   0.245 -0.1911 -0.1972  0.1158
11068W        W21328   0.689  10.346   1.164  0.0662  0.2038  0.1410
11069W        W21329  10.632   6.231   1.381 -0.2603 -0.0703 -0.0476
11070W        W21330   6.286  13.272   1.389  0.2235  0.2035 -0.4716
11071W        W21331   6.887   8.654   1.321 -0.2310 -0.2448  0.1018
11072W        W21332   3.513   9.286   0.478 -0.0363  0.2334 -0.1015
11073W        W21333   2.739  14.747   6.862  0.0753  0.0700  0.2368
11074W        W21334   8.625   1.081   0.422 -0.0891  0.0878 -0.1598
11075W        W21335   1.126  13.750   1.976 -0.2525  0.0955 -0.1083
11076W        W21336   9.477  11.254   1.608  0.0876 -0.0311 -0.0674
11077W        W21337   6.304   1.125   0.085 -0.1014 -0.0480 -0.3353
11078W        W21338   8.109   4.359   6.611  0.0378 -0.3239 -0.1344
11079W        W21339   3.197   4.022   1.096  0.3752  0.1018  0.0938
11080W        W21340   4.585   8.654   1.213  0.2604 -0.2328  0.2319
11081W        W21341   4.076   2.616   6.244 -0.0376  0.1832  0.0607
11082W        W21342  15.204  14.155   7.758  0.0955 -0.0350 -0.0601
11083W        W21343   9.553  12.286   0.875 -0.2426  0.1292 -0.1709
11084W        W21344   4.342  13.782   2.427 -0.1953 -0.0425 -0.2654
11085W        W21345   9.763  12.894   6.523 -0.2245  0.0278  0.2032
11086W        W21346  13.160   9.081   8.429  0.3643  0.1467 -0.3916
11087W        W21347  11.886  13.024   1.971  0.2764  0.0176 -0.2036
11088W        W21348   9.189   9.058   6.870 -0.1557  0.1826 -0.0526
11089W        W21349   8.633  11.995   8.037 -0.1995  0.1453  0.1068
11090W        W21350  11.077  11.580   7.064  0.0670  0.0341 -0.3292
11091W        W21351   0.053  10.067   6.091  0.1236 -0.0161  0.2617
11092W        W21352   6.765  15.913   7.278  0.1517 -0.3095  0.1341
11093W        W21353  13.027   7.916   6.815  0.0428  0.1098  0.2878
11094W        W21354  12.510  10.524   7.296 -0.0740 -0.2517  0.0096
11095W        W21355   9.155  14.245   7.999 -0.0297 -0.0675  0.0525
11096W        W21356   5.846   9.252   8.435 -0.0009 -0.0039  0.1093
11097W        W21357   1.192   1.813   7.930 -0.4140 -0.1536 -0.0800
11098W        W21358   9.636  13.002   0.783  0.0661 -0.2335  0.2381
11099W        W21359  12.097   7.951   6.679  0.1473  0.0428  0.2139
11100W        W21360  11.241  13.622   8.630 -0.2002 -0.0035 -0.2382
11101W        W21361   2.011   6.763   1.797  0.1140  0.0524 -0.0646
11102W        W21362  13.940  15.995   8.389 -0.0561 -0.0335  0.0847
11103W        W21363   2.453   5.829   6.678 -0.1503  0.5415  0.0899
11104W        W21364  11.487  15.969   8.173 -0.0380 -0.0582  0.4748
11105W        W21365   5.691  11.662   0.445 -0.1064 -0.1788  0.1231
11106W        W21366  13.435   9.523   8.464  0.1204  0.0027 -0.1791
11107W        W21367   1.836  12.300   0.861 -0.3201  0.0902 -0.0322
11108W        W21368  14.730  14.356   7.754  0.3048 -0.1124  0.0416
11109W        W21369  14.909  13.591   1.646 -0.1283 -0.0727  0.3020
11110W        W21370  13.737   6.590   1.382  0.0540  0.0931 -0.0348
11111W        W21371  11.122  12.552   8.480 -0.0883  0.1283  0.0837
11112W        W21372   7.336  14.042   1.555 -0.0919 -0.2341  0.0725
11113W        W21373  12.448   4.400   0.524 -0.1788 -0.1227  0.0265
11114W        W21374  15.750  12.080   0.492  0.3099  0.2643 -0.1081
11115W        W21375  15.138  10.714   1.640  0.2337 -0.4408 -0.0424
11116W        W21376  13.350   3.794   0.411 -0.1029  0.0629 -0.2803
11117W        W21377  13.185  15.181   7.330 -0.4141  0.0348  0.0200
11118W        W21378   6.684  14.194   7.506 -0.0796  0.0177 -0.0506
11119W        W21379  10.165   8.874   1.300  0.2652  0.1430 -0.2806
11120W        W21380  13.595   0.050   1.853 -0.3440 -0.0514 -0.3183
11121W        W21381  15.037   4.016   7.335 -0.1837  0.1062  0.1360
11122W        W21382  14.438  14.568   7.314  0.0112 -0.0859  0.2532
11123W        W21383  11.315  14.157   0.455  0.1927 -0.0654  0.1989
11124W        W21384   2.861  13.584   7.551  0.3902  0.3478  0.0745
11125W        W21385   2.448  11.706   8.030 -0.2738 -0.2177  0.0686
11126W        W21386  15.979  13.169   8.208 -0.1042  0.2328 -0.0343
11127W        W21387   3.602  12.755   7.167  0.2683  0.2084 -0.0477
11128W        W21388   1.330   7.303   7.862  0.0925 -0.0039  0.1220
11129W        W21389  12.826  14.610   1.161  0.2879 -0.1022  0.0756
11130W        W21390   2.624  10.761   1.652 -0.0251 -0.0563  0.0921
11131W        W21391   4.125   8.335   7.690 -0.0303 -0.0833  0.2178
11132W        W21392   0.977  10.184   8.055  0.0796  0.4393  0.0315
11133W        W21393  14.765  16.221   8.590  0.0244  0.0204  0.2831
11134W        W21394   0.546  14.503   7.655 -0.0538 -0.3790 -0.0851
11135W        W21395  12.893  15.942   5.932 -0.0504  0.0147 -0.1894
11136W        W21396   1.727   8.518   0.524  0.1174 -0.0337 -0.0850
11137W        W21397  15.138   4.949   0.643  0.1471 -0.0350  0.0356
11138W        W21398   0.088  11.993   6.769 -0.2560  0.2445 -0.1134
11139W        W21399  12.630   4.544   0.055  0.0300  0.0456  0.2089
11140W        W21400  16.065   4.039   8.437 -0.2177  0.2100  0.0002
11141W        W21401   6.227   8.463   7.799 -0.1774  0.0386  0.1942
11142W        W21402  16.305  12.970   2.194  0.1953 -0.4377  0.3974
11143W        W21403   4.960  12.317   0.667  0.0455  0.0721 -0.0083
11144W        W21404  14.078  13.258   7.525  0.2004  0.1331 -0.0268
11145W        W21405   2.162  13.327   2.307 -0.0754  0.1087 -0.1433
11146W        W21406   2.206  16.582   6.606 -0.0388 -0.2856  0.2199
11147W        W21407   3.545   2.410   1.424 -0.4718 -0.2342  0.1741
11148W        W21408   3.308  11.985   7.600 -0.1843  0.1017  0.0427
11149W        W21409  12.891   1.897   5.788 -0.0089 -0.3369 -0.0635
11150W        W21410   7.709   0.646   6.989 -0.1032  0.1589  0.1610
11151W        W21411   8.933  12.986   0.867  0.0426  0.0065  0.0649
11152W        W21412  15.779   1.092   7.368  0.2069 -0.1860  0.0513
11153W        W21413   8.338  16.571   7.384 -0.3839  0.2278  0.1784
11154W        W21414   8.064  12.903   6.617  0.0317 -0.0564  0.0524
11155W        W21415   5.913  10.646   1.266 -0.1424 -0.0428 -0.2656
11156W        W21416   4.809   4.203   2.231  0.3180  0.0799  0.5643
11157W        W21417   7.126  12.721   6.893 -0.0322  0.0153 -0.0402
11158W        W21418  12.609  13.436   0.712 -0.1027  0.2423 -0.0654
11159W        W21419   1.833  11.550   7.518  0.0805 -0.0002  0.1091
11160W        W21420  10.020  14.692   0.695 -0.2461  0.0705 -0.0266
11161W        W21421   4.962   1.709   6.755 -0.1453  0.2990  0.0558
11162W        W21422   6.240  16.175   7.976  0.1970 -0.4158 -0.1140
11163W        W21423   5.116  14.188   0.936  0.2699 -0.2849  0.1715
11164W        W21424  13.732   9.451   2.472 -0.4258  0.4770 -0.0544
11165W        W21425   9.331  10.073   2.329  0.2820 -0.1746 -0.3411
11166W        W21426  10.230   2.796   8.138  0.0409 -0.3339  0.2111
11167W        W21427  14.671   4.869   7.410  0.0733  0.1404 -0.0004
11168W        W21428   6.955  15.654   0.040  0.0778 -0.3363 -0.0812
11169W        W21429  12.177   3.944   7.740  0.2381 -0.0865  0.1761
11170W        W21430  12.641   9.678   7.294 -0.0380 -0.2336 -0.0989
11171W        W21431   5.344  14.749   8.554 -0.3383 -0.0751  0.3235
11172W        W21432   5.397  12.815   6.785  0.1052 -0.0513 -0.3818
11173W        W21433   8.264   9.608   7.588  0.3243  0.1531  0.0137
11174W        W21434  11.478  15.218   6.848 -0.1481 -0.1011 -0.0326
11175W        W21435  11.791  10.429   7.337 -0.2191 -0.3804 -0.0382
11176W        W21436  13.627   2.434   7.084  0.1512  0.4164 -0.1056
11177W        W21437  13.107  15.891   7.721 -0.1620  0.3622 -0.1711
11178W        W21438  16.042  15.373   7.798  0.1944  0.0154 -0.2350
11179W        W21439   6.412  16.279   1.932 -0.0754 -0.0384  0.1555
11180W        W21440   7.238  16.116   7.550  0.2749  0.3039 -0.0966
11181W        W21441  16.205   2.304   8.047  0.0015 -0.0096  0.2820
11182W        W21442  11.120  12.757   0.718  0.2549  0.5194 -0.0718
11183W        W21443  14.057  12.159   7.863 -0.0978  0.1298 -0.0668
11184W        W21444  14.798   5.619   1.326 -0.1783  0.2098 -0.0361
11185W        W21445  13.039   9.984   7.133 -0.2212 -0.0542  0.3057
11186W        W21446  13.347   2.970   0.780  0.0252 -0.1090 -0.2505
11187W        W21447  10.316   1.550   6.502  0.1912 -0.0840 -0.1404
11188W        W21448  11.632   3.556   1.240 -0.0810  0.1662  0.2529
11189W        W21449  15.746  14.571   2.196 -0.3097  0.1341 -0.1548
11190W        W21450  15.052  10.938   0.274 -0.0270  0.0828 -0.0025
11191W        W21451  16.033  12.517   0.913 -0.3723 -0.0838 -0.0408
11192W        W21452  12.315   1.178   2.054  0.0258 -0.1710 -0.1167
11193W        W21453  15.206  12.978   1.172  0.0287  0.0676  0.0764
11194W        W21454   1.110  14.267   2.031  0.1733 -0.2330 -0.3431
11195W        W21455   1.553  15.212   6.181 -0.0010  0.1998 -0.0722
11196ION     NA21456  12.734   1.395   8.071  0.0513 -0.0137 -0.2267
11197ION     NA21457  15.186   5.957   1.902  0.2729  0.1751 -0.0582
11198ION     NA21458  13.148  14.328   1.944  0.1032  0.1425 -0.1530
11199ION     NA21459   6.535  12.057   7.754 -0.0783  0.2951 -0.1483
11200ION     NA21460   2.680   2.042   2.353  0.1599  0.0299 -0.1277
11201ION     NA21461  13.213   0.838   2.414  0.0568 -0.0390 -0.1614
11202ION     NA21462   4.855   4.873   1.862 -0.1196 -0.0646  0.2489
11203ION     NA21463   9.637   0.577   8.124 -0.1046  0.3457 -0.1579
11204ION     NA21464  16.142   5.603   7.970 -0.1191 -0.0759  0.0243
11205ION     NA21465  14.234   4.742   2.600  0.0073 -0.2566 -0.0162
11206ION     NA21466  10.987  15.783   8.078  0.1892 -0.3495  0.0100
11207ION     NA21467  10.689  11.515   1.186  0.1175  0.0963 -0.1146
11208ION     NA21468   7.029   9.212   8.431 -0.0466 -0.0425  0.0812
11209ION     NA21469  15.967  11.075   2.419  0.1985  0.2328  0.1200
11210ION     NA21470   7.676   9.589   6.101 -0.1554  0.0760  0.0615
11211ION     NA21471   2.348   9.759   7.669  0.1235 -0.3109 -0.1116
11212ION     NA21472  14.154  14.575   6.860 -0.2598  0.0580  0.4701
11213ION     NA21473   6.695   3.459   2.136 -0.1693 -0.3427 -0.1809
11214ION     NA21474   5.790  10.535   6.406  0.0228 -0.3950  0.2027
11215ION     NA21475  16.569   0.689   0.026 -0.2122 -0.1772  0.0674
11216ION     NA21476   4.089  16.528   2.230 -0.0853  0.0739 -0.0956
11217ION     NA21477   9.289   0.771   2.460 -0.2402 -0.2238 -0.1140
11218ION     NA21478   5.123   6.559   2.528  0.1835  0.0922  0.1390
11219ION     NA21479   2.867   6.942   0.686 -0.0011  0.1595 -0.1761
11220ION     NA21480  14.216  11.684   8.034  0.1826  0.1894 -0.2265
11221ION     NA21481  13.135   7.583   5.967  0.0053 -0.2380 -0.1660
11222ION     NA21482   8.762   6.247   2.085 -0.0603 -0.1730 -0.4657
11223ION     NA21483   0.465   5.065   0.794  0.2712 -0.1583 -0.1670
11224ION     NA21484   9.606  10.940   2.040 -0.2764  0.1467 -0.0471
11225ION     NA21485  10.118  13.158   0.915  0.1986 -0.1617  0.3188
11226ION     NA21486  13.740  10.398   6.415  0.0550 -0.0610  0.1599
11227ION     NA21487  16.231   3.861   0.818 -0.0936  0.1016 -0.1223
11228ION     NA21488   8.486   7.420   0.983 -0.1032 -0.2017 -0.1559
11229ION     NA21489  13.895   8.231   0.592 -0.0250  0.1030  0.0057
11230ION     NA21490  14.313  13.433   6.385  0.0343 -0.4906  0.1499
11231ION     NA21491  13.941  14.718   2.295 -0.0249 -0.1048  0.0820
11232ION     NA21492  15.798  15.123   0.308  0.3268 -0.0314  0.1017
11233ION     NA21493  16.305  15.234   2.315  0.2072 -0.1027  0.1328
11234ION     NA21494   6.146   8.447   6.492 -0.1194 -0.0064 -0.0214
11235ION     NA21495  11.235  14.632   2.247  0.2115 -0.0904  0.0461
11236ION     NA21496   5.967  12.762   8.184 -0.1494  0.1647 -0.3846
11237ION     NA21497   4.206  13.028   7.240  0.3315  0.0460 -0.0110
11238ION     NA21498   3.277  16.277   2.193 -0.2309  0.3041  0.0572
11239ION     NA21499   9.369  14.474   8.562  0.2093 -0.1398  0.1369
11240ION     NA21500   9.310  12.691   6.806 -0.0627 -0.1351  0.0686
11241ION     NA21501  11.411  14.840   6.110 -0.3585 -0.0405 -0.2215
11242ION     NA21502  11.400   5.913   2.132 -0.1228  0.0598 -0.1117
11243ION     NA21503   4.320   0.144   6.206 -0.0701 -0.0969  0.1351
11244ION     NA21504   6.869  10.105   7.993  0.1996 -0.1832  0.0435
11245ION     NA21505  10.671  16.236   1.902 -0.2206 -0.0229 -0.0315
11246ION     NA21506   4.999   1.912   1.184 -0.2269  0.1920 -0.0602
11247ION     NA21507   6.286  14.046   1.202 -0.2251  0.0087 -0.0694
11248ION     NA21508   9.401  16.000   2.265  0.0432  0.4132  0.0086
11249ION     NA21509  10.266  12.684   7.306  0.1038 -0.2846 -0.1095
11250ION     NA21510   2.794  10.905   6.358 -0.6269  0.2310 -0.0405
11251ION     NA21511  14.849  14.310   2.326 -0.0500 -0.1544  0.1577
11252ION     NA21512   1.756  10.166   6.391 -0.1050  0.2026  0.1133
11253ION     NA21513   6.769  11.266   8.120  0.1862 -0.3174  0.2874
11254ION     NA21514  11.504   2.555   2.322  0.0593  0.1517  0.1087
11255ION     NA21515   5.904  11.935   6.077 -0.3417 -0.1482  0.1646
11256ION     NA21516  11.818   8.433   2.314  0.0476 -0.1587  0.0168
11257ION     NA21517  14.581   2.345   6.148  0.1928 -0.0581  0.0892
11258ION     NA21518   1.844   7.507   7.419 -0.3600 -0.0880  0.2522
11259ION     NA21519   6.126   5.958   2.535  0.0338 -0.0791 -0.0232
11260ION     NA21520   9.585   4.192   0.737  0.2774 -0.1528  0.1882
11261ION     NA21521  13.743   0.939   6.686  0.1640 -0.0258  0.2588
11262ION     NA21522   4.314   1.819   2.436  0.1923 -0.0880  0.1198
11263ION     NA21523  10.174  13.609   2.403 -0.0830 -0.0021 -0.0270
11264ION     NA21524  15.845   8.038   8.506 -0.1097  0.0746  0.0519
11265ION     NA21525   6.399  15.161   7.643 -0.0771  0.0872 -0.1302
11266ION     NA21526   0.789  13.475   7.242  0.0152 -0.2607  0.1816
11267ION     NA21527  12.364  16.261   0.917 -0.1198  0.0401 -0.4041
11268ION     NA21528   2.817   8.811   1.001 -0.1736 -0.1545 -0.0844
11269ION     NA21529  10.197   7.164   7.989 -0.0602  0.2438 -0.1369
11270ION     NA21530  10.787   8.410   6.178  0.3488 -0.2531  0.2197
11271ION     NA21531  15.833  12.412   6.559  0.1042 -0.0074 -0.2363
11272ION     NA21532  12.938   9.681   0.407  0.0495 -0.0371  0.2312
11273ION     NA21533  10.518   3.790   2.147  0.0794  0.1120  0.1150
11274ION     NA21534  12.059  11.697   1.036  0.0322 -0.0944  0.0897
11275ION     NA21535  11.890  15.495   7.612  0.3012 -0.1719  0.1604
11276ION     NA21536  11.850   1.587   2.106 -0.1340  0.1326  0.1179
11277ION     NA21537   7.505   9.614   7.137  0.1567  0.0593 -0.0284
11278ION     NA21538   1.595  10.542   1.365  0.1676  0.0119  0.1571
11279ION     NA21539  14.263   8.630   2.268 -0.1308 -0.3082  0.1131
11280ION     NA21540  12.700   3.502   2.095  0.2686  0.1254 -0.0234
11281ION     NA21541  12.087   1.417   0.491 -0.2298 -0.0505  0.1472
11282ION     NA21542  15.523   8.396   6.123 -0.0920 -0.0787 -0.0077
11283ION     NA21543   5.905   7.480   6.793 -0.1631  0.1273  0.1726
11284ION     NA21544  10.225  14.010   1.249  0.1614 -0.1903 -0.0050
11285ION     NA21545  16.309  16.286   7.370  0.1693 -0.5466 -0.1768
11286ION     NA21546   6.196  16.415   8.537  0.1248 -0.0928 -0.0093
11287ION     NA21547   0.333  10.938   2.576 -0.1156 -0.0453 -0.0147
11288ION     NA21548  13.600   2.770   6.273 -0.0606 -0.2640  0.1837
11289ION     NA21549  10.965  15.485   2.212 -0.3812 -0.2871 -0.1351
11290ION     NA21550   1.284   3.656   1.605  0.1175  0.0872  0.4639
11291ION     NA21551   7.064  13.882   7.700 -0.1705 -0.4249 -0.0240
11292ION     NA21552   1.254  16.172   7.819 -0.2589 -0.0925  0.0955
11293ION     NA21553   6.562  12.969   6.533 -0.1823 -0.3280  0.0146
11294ION     NA21554  11.243  11.267   2.563 -0.1784  0.0306 -0.1840
11295ION     NA21555  10.495   5.446   7.341 -0.1459 -0.0789 -0.2165
11296ION     NA21556   5.512   9.830   8.399 -0.1179 -0.0874  0.1355
11297ION     NA21557  14.889  12.365   6.516  0.2474 -0.0909  0.1143
11298ION     NA21558  15.909   6.330   7.217 -0.0000 -0.1193  0.0819
11299ION     NA21559  11.712   0.986   1.428 -0.1549  0.0901 -0.1721
11300ION     NA21560   0.136  14.700   6.466 -0.0093  0.2213 -0.0543
11301ION     NA21561   9.557   7.374   6.291  0.0257 -0.1264  0.2050
11302ION     NA21562   2.306   4.340   6.090 -0.1361 -0.2429  0.0326
11303ION     NA21563  11.326   3.497   2.182  0.0945  0.2382  0.0533
11304ION     NA21564   2.532   8.519   2.452  0.2941  0.2115 -0.2181
11305ION     NA21565  10.588   4.383   6.055  0.1568 -0.1887 -0.2269
11306ION     NA21566   7.343  12.224   6.135  0.1391 -0.0261 -0.0912
11307ION     NA21567   8.784   5.841   6.322 -0.0917  0.2180  0.1816
11308ION     NA21568  15.748   1.104   8.302  0.2310 -0.2938  0.1973
11309ION     NA21569   1.766  11.114   2.615 -0.0661  0.0458 -0.2790
11310ION     NA21570  12.332  12.072   6.765  0.3510 -0.0267 -0.0145
11311ION     NA21571   9.740   1.812   2.304  0.1202  0.2721  0.0382
11312ION     NA21572   1.867  12.785   7.344 -0.1510 -0.0037  0.1453
11313ION     NA21573   7.205  11.451   1.929  0.2232  0.1327 -0.0202
11314ION     NA21574  12.562   6.344   2.062  0.0063  0.0255 -0.1776
11315ION     NA21575   8.142   5.197   0.820 -0.2388 -0.2798  0.1418
11316ION     NA21576   2.576   1.381   6.452  0.3807 -0.0381 -0.0626
11317ION     NA21577   6.558   0.697   1.752  0.2325 -0.0127  0.1142
11318ION     NA21578   3.181  12.944   0.991 -0.0453 -0.1900 -0.2199
11319ION     NA21579   6.321  11.158   1.893 -0.1402 -0.1272  0.1965
11320ION     NA21580   5.907   6.070   7.137  0.3740  0.3268  0.0303
11321ION     NA21581  11.396  14.443   0.049 -0.0386 -0.0699  0.1870
11322ION     NA21582  11.963   9.047   7.158  0.1720 -0.0303  0.1573
11323ION     NA21583  12.535   2.478   0.874 -0.0607 -0.2259 -0.1999
11324ION     NA21584   6.374   6.716   0.873 -0.1072  0.0451  0.1809
11325ION     NA21585   7.951  15.181   0.964  0.4162  0.0362  0.2118
11326ION     NA21586   6.480   9.875   6.457  0.0959  0.0599  0.0908
11327ION     NA21587   9.121  13.112   1.306 -0.0185  0.0740 -0.1301
11328ION     NA21588   8.065  16.589   0.099 -0.2114  0.0708 -0.0770
11329ION     NA21589   7.920   3.268   6.484  0.0903 -0.0283  0.2051
11330ION     NA21590  15.925  14.559   6.470  0.0269  0.1543 -0.1600
11331ION     NA21591   3.179   6.132   6.257  0.1125 -0.0858 -0.1750
11332ION     NA21592   4.539   6.245   1.840 -0.1080 -0.0537 -0.1698
11333ION     NA21593   0.458   5.535   0.844  0.4294  0.0142  0.0691
11334ION     NA21594  10.612  12.566   8.605 -0.2680  0.2756  0.0709
11335ION     NA21595  12.140   3.257   1.227  0.2537 -0.3268  0.1539
11336ION     NA21596  14.311   8.843   7.385 -0.0968 -0.2140 -0.2213
11337ION     NA21597  11.485   2.459   6.223  0.0354 -0.2102 -0.0889
11338ION     NA21598   3.207   1.179   0.431  0.1730 -0.3063  0.2999
11339ION     NA21599  14.832   0.519   2.536  0.0963  0.2405  0.1359
11340ION     NA21600   7.172  12.517   8.677  0.2965  0.3045 -0.0924
11341ION     NA21601  11.632  13.866   6.782 -0.1028  0.0409  0.2370
11342ION     NA21602   4.138   0.425   7.797  0.0117  0.4101  0.1682
11343ION     NA21603   5.932   6.874   2.248 -0.1748 -0.1877  0.1020
11344ION     NA21604   6.687   0.720   0.606  0.2330  0.0612  0.1748
11345ION     NA21605   8.888   0.626   6.495 -0.1387 -0.1254  0.1693
11346ION     NA21606   5.837   2.448   7.761  0.0317  0.0843 -0.1457
11347ION     NA21607   5.518  16.116   1.970  0.2680 -0.0019  0.0441
11348ION     NA21608  13.022   9.795   1.860  0.2257  0.1729 -0.0482
11349ION     NA21609   5.655   1.493   8.049 -0.1280  0.1029 -0.0597
11350ION     NA21610   0.337  14.373   0.193  0.0433  0.1014  0.0581
11351ION     NA21611   3.719   2.434   6.805 -0.0423  0.1868 -0.1873
11352ION     NA21612  10.460  11.274   7.139 -0.0930  0.1468 -0.0108
11353ION     NA21613   3.433   0.964   6.663 -0.0854 -0.1719  0.2393
11354ION     NA21614  12.248   0.451   6.715  0.3242  0.1021 -0.1013
11355ION     NA21615  15.857  15.676   2.395  0.1609 -0.0966  0.1587
11356ION     NA21616  11.382  10.195   1.141 -0.0953 -0.0546 -0.1350
11357ION     NA21617  15.662   7.999   1.474  0.1217  0.2032 -0.1161
11358ION     NA21618   0.059   1.674   6.921  0.2684 -0.2273  0.3239
11359ION     NA21619  14.331   5.900   8.423 -0.4265  0.0666  0.1446
11360ION     NA21620  13.813   1.110   0.309  0.3723  0.4448 -0.1260
11361ION     NA21621   3.211   8.754   7.995  0.1615 -0.1266  0.1426
11362ION     NA21622   9.852   6.340   7.202 -0.0136 -0.5395  0.0467
11363ION     NA21623  12.160   2.460   8.096 -0.0544 -0.0778 -0.1543
11364ION     NA21624  12.860   3.577   6.142 -0.0507 -0.1288  0.0410
11365ION     NA21625   6.767   3.979   7.694 -0.0063 -0.1511  0.1044
11366ION     NA21626   9.249   6.898   2.504  0.0631  0.3877 -0.0249
11367ION     NA21627  15.040  14.498   6.514  0.3142 -0.1197  0.1049
11368ION     NA21628   3.366  10.307   0.152  0.0778 -0.0363  0.2894
11369ION     NA21629   7.408   4.630   6.510  0.1122  0.0453  0.0655
11370ION     NA21630  12.545   4.683   6.523  0.0604  0.1040  0.2295
11371ION     NA21631   1.931   9.123   1.117 -0.2179  0.0604 -0.0086
11372ION     NA21632  14.247  11.970   1.616 -0.0144 -0.0341  0.2140
11373ION     NA21633  14.408  14.048   7.087 -0.3231 -0.1308  0.0844
11374ION     NA21634   7.306   5.271   7.130  0.1112  0.1035  0.0847
11375ION     NA21635   9.320  14.792   2.089  0.0320 -0.2133 -0.0246
11376ION     NA21636   3.751   5.027   0.871  0.0984  0.1257 -0.0121
11377ION     NA21637  15.300   3.036   2.620 -0.1110 -0.1157  0.0537
11378ION     NA21638  13.981  14.156   2.252  0.2171  0.2448 -0.4415
11379ION     NA21639   1.547  14.165   2.248 -0.2327  0.2804 -0.1243
11380ION     NA21640   0.294   9.654   1.858 -0.1143  0.1127  0.0958
11381ION     NA21641  11.094   9.960   6.258  0.1738  0.2810  0.1714
11382ION     NA21642  10.453   7.993   7.423 -0.1104 -0.2363  0.3840
11383ION     NA21643  12.025   2.154   2.451 -0.3687 -0.2474 -0.1086
11384ION     NA21644  13.136   8.822   0.327 -0.1316 -0.0631 -0.2011
11385ION     NA21645  10.037  11.961   1.944 -0.0377 -0.0739  0.2708
11386ION     NA21646  12.750   1.169   1.732 -0.0826  0.1582  0.0482
11387ION     NA21647   4.467   0.839   6.533  0.2215 -0.1690  0.1623
11388ION     NA21648   0.646   8.675   6.986 -0.3456  0.0636 -0.0578
11389ION     NA21649   5.859  14.139   7.623 -0.0779 -0.1594 -0.0218
11390ION     NA21650   8.713  14.880   6.386 -0.1985 -0.4050 -0.0728
11391ION     NA21651   9.260   3.454   2.069  0.2395  0.0022 -0.0414
11392ION     NA21652   5.253   2.017   6.464  0.0855 -0.0790  0.2009
11393ION     NA21653   4.648   3.358   6.196  0.2498 -0.0388 -0.0320
11394ION     NA21654   6.087   1.441   0.429  0.2530 -0.1658  0.2650
11395ION     NA21655   8.242   7.945   2.279  0.0799  0.1861  0.0101
11396ION     NA21656  12.988  10.829   1.477  0.3299  0.1348  0.1497
11397ION     NA21657   8.776   4.012   8.151  0.0117  0.0896  0.0664
11398ION     NA21658   3.399  11.605   7.315  0.0671 -0.0070  0.1180
11399ION     NA21659  11.702  10.315   0.124 -0.1888  0.1221  0.2637
11400ION     NA21660   7.060   1.494   6.222 -0.2567  0.1437 -0.1867
11401ION     NA21661  14.695  11.328   6.213  0.0539  0.1069  0.0556
11402ION     NA21662   0.042  13.291   0.865  0.0884 -0.2153  0.1365
11403ION     NA21663  10.441  11.044   6.173  0.1696 -0.4524 -0.1159
11404ION     NA21664   1.087  13.212   6.345 -0.1335 -0.0294  0.1649
11405ION     NA21665  15.633   9.723   2.447  0.0775  0.3994  0.0998
11406ION     NA21666   6.718   1.852   7.198 -0.0577 -0.0528 -0.1424
11407ION     NA21667   9.581  15.145   8.163 -0.0068  0.1692  0.1764
11408ION     NA21668   9.286   0.944   0.959 -0.1235 -0.1871 -0.1592
11409ION     NA21669   7.431  13.869   0.601  0.3047  0.2425  0.0303
11410ION     NA21670   7.123   6.694   7.138 -0.3551  0.0554  0.3770
11411ION     NA21671  12.641  13.169   2.449  0.1703 -0.1305  0.1261
11412ION     NA21672  12.585  15.050   1.200 -0.1098  0.0550 -0.3403
11413ION     NA21673   6.628   5.281   2.580  0.0924  0.0743 -0.0299
11414ION     NA21674  10.907   9.992   0.143  0.0397 -0.0922 -0.0975
11415ION     NA21675  10.611   8.427   0.816  0.2794  0.0780 -0.0951
11416ION     NA21676  16.490  13.874   2.526 -0.0525  0.0509 -0.3538
11417ION     NA21677   8.279   8.883   2.253 -0.0607  0.1408  0.0595
11418ION     NA21678  15.316   1.833   2.299 -0.0721  0.1448  0.4233
11419ION     NA21679   5.059  15.552   6.256 -0.2107  0.1862 -0.1034
11420ION     NA21680  16.267   5.398   7.149 -0.1942  0.2409  0.1873
11421ION     NA21681   3.592   0.126   2.410  0.2305  0.1171  0.1136
11422ION     NA21682   2.853  12.499   0.329  0.0505 -0.2102  0.0781
11423ION     NA21683  10.569   6.305   0.454 -0.0762 -0.0330  0.1955
11424ION     NA21684  12.667   6.098   0.790 -0.0510  0.3385  0.0938
11425ION     NA21685   8.674   9.488   2.185  0.0141  0.2026 -0.0159
11426ION     NA21686   2.116  12.315   2.123 -0.0779 -0.0774 -0.0053
11427ION     NA21687   1.140   2.980   6.397  0.0303 -0.0892 -0.2143
11428ION     NA21688  12.812   6.855   7.991 -0.0851 -0.0843  0.1701
11429ION     NA21689  15.916   6.028   1.420  0.0114  0.2421  0.2058
11430ION     NA21690   5.566  14.676   7.006  0.1050  0.1444  0.0505
11431ION     NA21691  14.838   5.611   6.801  0.0525 -0.1733 -0.4342
11432ION     NA21692   7.274   3.981   6.511 -0.1715  0.0798 -0.2144
11433ION     NA21693   3.532  10.974   6.163 -0.1563 -0.0440  0.3015
11434ION     NA21694   1.231   0.770   6.647 -0.2600 -0.3096  0.2545
11435ION     NA21695   8.735   7.233   6.201  0.1858  0.0676  0.1516
11436ION     NA21696   6.848  15.788   6.248 -0.0726  0.0585  0.1832
11437ION     NA21697   6.387   3.800   6.450 -0.4250  0.0873 -0.2619
11438ION     NA21698   7.303  10.408   6.166  0.0427  0.0945 -0.0190
11439ION     NA21699   5.819  14.670   2.395 -0.2878  0.0950 -0.2165
11440ION     NA21700   5.941   2.759   2.290 -0.1510  0.1101 -0.0589
11441ION     NA21701   4.904   5.897   8.627 -0.0880  0.2735  0.0193
11442ION     NA21702   7.630   0.476   6.186 -0.1690 -0.0761 -0.1561
11443ION     NA21703  15.045   1.476   8.601  0.2639 -0.1042 -0.1050
11444ION     NA21704   3.738   9.586   8.376  0.0306 -0.0492 -0.0468
11445ION     NA21705  16.553   7.453   1.134  0.3608 -0.1647 -0.5140
11446ION     NA21706   1.138   7.232   2.448  0.2727  0.3654 -0.2762
11447ION     NA21707   0.775   1.142   0.341 -0.0831 -0.0963 -0.1011
11448ION     NA21708   6.733  15.019   2.241  0.2522  0.1742  0.1738
11449ION     NA21709  14.018   6.226   6.468 -0.0132 -0.1447  0.0453
11450ION     NA21710   8.672   8.163   8.436  0.1492  0.2393  0.1156
11451ION     NA21711  16.125  10.327   7.714 -0.0887 -0.0982 -0.3593
11452ION     NA21712   5.721  11.432   6.193  0.1685 -0.1386 -0.4376
11453ION     NA21713   6.911   4.494   2.578  0.1009  0.1088  0.1834
11454ION     NA21714   7.346  11.168   6.458  0.1717 -0.1182  0.3286
11455ION     NA21715   2.565  13.250   7.969 -0.0206 -0.0384  0.3793
11456ION     NA21716   8.582   4.996   6.142 -0.1213 -0.5585  0.2138
11457ION     NA21717  12.167   0.028   6.380 -0.0945 -0.0638  0.1212
11458ION     NA21718  16.532   1.724   1.180 -0.2805 -0.1113 -0.1865
11459ION     NA21719   4.471  12.800   6.315  0.1890 -0.0395 -0.1021
11460ION     NA21720  13.901  11.141   6.316 -0.3638 -0.2022  0.1710
11461ION     NA21721   0.538   7.866   7.501 -0.0204  0.1282  0.0245
11462ION     NA21722   2.975  15.533   7.855  0.0842 -0.3723  0.3171
11463ION     NA21723  13.674   3.798   7.541  0.2281 -0.1042 -0.1753
11464ION     NA21724   5.514   9.825   1.408  0.2997  0.3090  0.3420
11465ION     NA21725  12.849   3.986   1.278  0.0588 -0.0052 -0.1412
11466ION     NA21726   7.314   9.811   6.508 -0.2856 -0.0859 -0.2178
11467ION     NA21727   8.356   4.575   7.423  0.2230  0.2143 -0.2343
11468ION     NA21728  13.160  16.217   6.406 -0.1415 -0.1194  0.2386
11469ION     NA21729   4.008   7.315   7.206  0.3277 -0.2037  0.0364
11470ION     NA21730  10.940   9.056   0.073  0.0717 -0.0265 -0.0670
11471ION     NA21731  12.117  12.641   6.367  0.0553  0.0411  0.2170
11472ION     NA21732  11.509   1.317   0.056  0.0626  0.3136  0.0080
11473ION     NA21733  11.187   1.544   6.053  0.2543  0.2496  0.1814
11474ION     NA21734   5.859   7.579   0.287  0.3168  0.1988  0.1085
11475ION     NA21735  13.712   8.685   8.428 -0.0202 -0.2929 -0.4470
11476ION     NA21736   5.063  11.364   6.209  0.2079  0.0337  0.1533
11477ION     NA21737   1.375   2.080   6.016 -0.0624 -0.2464  0.0003
11478ION     NA21738  11.842   6.014   1.447  0.1674 -0.0901 -0.3768
11479ION     NA21739   1.498   3.129   6.755 -0.0922  0.0048  0.0887
11480ION     NA21740  10.771  16.108   6.219  0.0365 -0.3461 -0.3573
11481ION     NA21741   8.519  15.486   6.565 -0.0844  0.1101 -0.0625
11482ION     NA21742   5.367   1.959   2.468 -0.1202  0.1772 -0.1347
11483ION     NA21743   9.455   8.129   7.534 -0.1902  0.1789  0.3071
11484ION     NA21744   9.919  13.197   8.315 -0.1757 -0.0508 -0.0522
11485ION     NA21745   7.494   3.876   2.097  0.1767 -0.0717  0.1162
11486ION     NA21746   9.664   7.818   1.137 -0.0787  0.2297 -0.0454
11487ION     NA21747   4.030  13.918   7.010  0.3222  0.0350 -0.2009
11488ION     NA21748  13.628   1.290   2.276  0.1085 -0.1060 -0.0950
11489ION     NA21749   0.315  14.830   1.719  0.1080 -0.0666  0.1918
11490ION     NA21750   5.004   5.681   2.387 -0.2175 -0.0468  0.2781
11491ION     NA21751  16.132   7.012   7.451  0.3284 -0.2071 -0.0960
11492ION     NA21752   0.358   9.201   8.285  0.1614 -0.1021  0.2729
11493ION     NA21753  14.955  11.575   0.996 -0.0223 -0.1821 -0.0019
11494ION     NA21754   2.177   0.667   6.547  0.0524 -0.0461  0.0924
11495ION     NA21755  11.020  16.176   1.372 -0.1051 -0.2282 -0.1141
11496ION     NA21756  13.812   0.379   7.501 -0.0897 -0.0218  0.0923
11497ION     NA21757   4.719   9.487   2.513  0.2702 -0.0555  0.0824
11498ION     NA21758  12.410   5.214   1.048 -0.0223  0.2969  0.1932
11499ION     NA21759  15.763   5.759   6.288 -0.0083  0.1941 -0.0197
11500ION     NA21760   2.952  12.006   2.392 -0.0940 -0.1333  0.1081
11501ION     NA21761  10.743   9.865   6.977  0.1467 -0.1527  0.1566
11502ION     NA21762   1.387   3.335   6.052 -0.1864  0.1771 -0.1931
11503ION     NA21763   7.207   7.790   6.579 -0.0783  0.2616 -0.2020
11504ION     NA21764  16.467  13.017   8.352 -0.0627  0.1278  0.3709
11505ION     NA21765  10.885  14.150   6.257  0.1293 -0.0514  0.0201
11506ION     NA21766  13.702   8.967   0.910 -0.0757 -0.0103  0.2863
11507ION     NA21767   1.984  11.265   6.530 -0.0642  0.0913 -0.0687
11508ION     NA21768   7.505  11.749   2.221  0.0941 -0.0597 -0.1276
11509ION     NA21769  10.463   6.082   2.384  0.1714 -0.0947  0.0056
11510ION     NA21770   3.359   0.014   1.191 -0.2462  0.1703  0.2198
11511ION     NA21771  14.157   2.644   8.405 -0.1919 -0.0428 -0.0009
11512ION     NA21772   1.010   0.387   2.263  0.1080  0.1521  0.4273
11513ION     NA21773   4.192   0.071   6.788 -0.2185  0.3473  0.0213
11514ION     NA21774  11.095  13.677   2.232  0.0169  0.1700  0.0755
11515ION     NA21775   2.064   5.155   6.094  0.0408 -0.1272  0.1584
11516ION     NA21776  15.327   6.657   7.770 -0.4100 -0.0487 -0.2025
11517ION     NA21777   5.303  12.129   1.063  0.0624  0.0004  0.0090
11518ION     NA21778   8.273   8.907   6.402 -0.1891 -0.1897  0.0122
11519ION     NA21779   2.838  10.484   8.030  0.0526 -0.3854  0.2083
11520ION     NA21780  14.211   6.932   6.171 -0.4781 -0.1134 -0.3463
11521ION     NA21781  12.038   6.568   0.224  0.0619 -0.0840  0.0974
11522ION     NA21782   8.640  16.398   6.362 -0.2323  0.0143  0.0233
11523ION     NA21783   4.636   8.262   6.368 -0.1485  0.0252 -0.0232
11524ION     NA21784  11.998   3.838   2.620 -0.3388  0.2613  0.0143
11525ION     NA21785  14.763  13.737   2.139  0.2605  0.2499  0.1450
11526ION     NA21786   6.379   2.748   0.569  0.1563 -0.0092 -0.0908
11527ION     NA21787   0.636   0.461   6.270  0.2036  0.0959 -0.4245
11528ION     NA21788   7.217  15.970   2.243 -0.0648 -0.2010  0.4032
11529ION     NA21789   7.938   5.856   2.208 -0.0959 -0.1989 -0.2965
11530ION     NA21790  13.714  14.747   8.043  0.1527 -0.0342 -0.2343
11531ION     NA21791   2.961   7.092   1.721 -0.1987 -0.0089 -0.0715
11532ION     NA21792   3.119   7.715   1.062 -0.1650  0.0513 -0.1664
11533ION     NA21793   6.136   4.413   8.457 -0.1427 -0.1416  0.3965
11534ION     NA21794  12.603   8.480   2.407  0.0049 -0.1889 -0.0351
11535ION     NA21795   0.178   7.079   2.109 -0.0362 -0.0646 -0.1902
11536ION     NA21796   6.368   8.325   8.320 -0.0633  0.2452  0.0992
11537ION     NA21797   0.607   8.011   6.474 -0.1742 -0.4431 -0.1608
11538ION     NA21798  12.835   3.700   0.319  0.0102 -0.2662  0.1258
11539ION     NA21799   0.424   5.625   7.550  0.1458  0.3163 -0.4273
11540ION     NA21800   2.590   9.405   2.266 -0.0841 -0.0558 -0.0691
11541ION     NA21801  13.189   7.806   1.933  0.3227 -0.1179 -0.0111
11542ION     NA21802  15.569   2.076   1.147 -0.1216 -0.2188 -0.1418
11543ION     NA21803   0.931  13.332   0.843 -0.1309 -0.3553  0.1312
11544ION     NA21804   3.050   8.622   6.275  0.1770 -0.1153 -0.1463
11545ION     NA21805  13.014  15.305   6.332  0.1952  0.0515  0.0470
11546ION     NA21806   9.918   7.793   8.399 -0.0021 -0.2862  0.0313
11547ION     NA21807   2.025   8.666   1.928  0.1513  0.0921  0.0570
11548ION     NA21808  15.230  13.696   7.571 -0.0147 -0.1158 -0.1246
11549ION     CL21809  10.607   7.810   7.989  0.2836 -0.0580 -0.3840
11550ION     CL21810   9.938  16.505   0.516 -0.1717  0.0982  0.0898
11551ION     CL21811   6.878   0.795   1.438 -0.2129  0.0217  0.3213
11552ION     CL21812  15.489  13.507   7.063 -0.0960 -0.2706 -0.1098
11553ION     CL21813  10.908   3.557   1.830 -0.2908 -0.1042  0.2685
11554ION     CL21814   6.201   8.122   0.472  0.1204  0.1263  0.0343
11555ION     CL21815  10.292  10.692   6.536 -0.0631  0.2962  0.1468
11556ION     CL21816   9.331   0.445   7.781  0.0683  0.0610  0.1055
11557ION     CL21817  11.129   9.857   1.467  0.0648  0.4200  0.1683
11558ION     CL21818   5.700   1.950   7.867  0.0254 -0.0835  0.1091
11559ION     CL21819   8.555   6.206   7.070  0.2128 -0.1376 -0.2201
11560ION     CL21820  11.674  16.475   8.427  0.1358  0.0726 -0.0853
11561ION     CL21821  10.169   8.601   0.600  0.2685  0.0274 -0.1317
11562ION     CL21822   3.548   8.968   7.161 -0.1721 -0.2211 -0.0317
11563ION     CL21823   3.016  15.876   1.897 -0.1204 -0.0130 -0.1506
11564ION     CL21824   5.229   8.393   7.092 -0.2226 -0.0870 -0.0953
11565ION     CL21825  14.021   5.817   0.131  0.1160 -0.0743 -0.0588
11566ION     CL21826  16.233   8.522   8.400 -0.0228  0.1864 -0.1996
11567ION     CL21827   7.267   8.383   1.661  0.1057 -0.3874 -0.0592
11568ION     CL21828  11.451  14.388   8.283 -0.0024  0.0027  0.0775
11569ION     CL21829   1.537   9.441   7.508 -0.3113  0.0921 -0.1771
11570ION     CL21830   3.662   1.084   0.252  0.1065 -0.0480  0.0679
11571ION     CL21831   6.855   8.510   8.306  0.0057  0.0116  0.1967
11572ION     CL21832  12.086   1.298   0.015  0.0794  0.2539  0.0136
11573ION     CL21833  10.177   7.680   1.164  0.1449  0.2030  0.0335
11574ION     CL21834   5.141   9.765   7.047  0.0545 -0.1426 -0.1001
11575ION     CL21835   3.201   9.680   7.987  0.2334  0.0263 -0.0175
11576ION     CL21836  10.940   3.944   0.050 -0.2130 -0.1048 -0.0712
11577ION     CL21837   7.664   5.824   1.664  0.0026  0.1961 -0.2565
11578ION     CL21838  16.017   2.179   7.425 -0.2601 -0.1072 -0.0202
11579ION     CL21839  13.601   8.643   0.579 -0.1382  0.1603  0.0295
11580ION     CL21840   6.315   3.877   7.404  0.1125  0.1704  0.2008
11581ION     CL21841   6.456   1.206   6.947 -0.0997  0.1248 -0.0582
11582ION     CL21842   2.748   1.269   0.726 -0.1970  0.5019 -0.2456
11583ION     CL21843  12.128  15.685   7.229  0.1412  0.0984  0.1475
11584ION     CL21844   1.249  13.495   7.479  0.1193  0.0995  0.1036
11585ION     CL21845  14.022  11.561   1.456 -0.0648 -0.0784 -0.1543
11586ION     CL21846   6.044   7.105   0.535 -0.2476  0.0195  0.4615
11587ION     CL21847  16.178  16.360   7.890 -0.3047 -0.2470 -0.0146
11588ION     CL21848  10.644   8.096   0.417  0.0220 -0.0622 -0.0243
11589ION     CL21849  14.893  12.817   7.277  0.1381  0.1091 -0.1379
11590ION     CL21850  14.942  13.820   0.293 -0.0254 -0.1501 -0.0464
11591ION     CL21851   4.316  15.878   7.799 -0.0073 -0.2461  0.1064
11592ION     CL21852   2.045  10.238   1.349 -0.0268 -0.1274  0.0329
11593ION     CL21853  16.229   0.874   8.414  0.0345  0.2194 -0.1237
11594ION     CL21854   4.783   6.126   8.153  0.1124 -0.1498 -0.1887
11595ION     CL21855   9.022  14.733   8.296 -0.0357  0.4966 -0.0120
11596ION     CL21856  11.345  15.612   7.805 -0.0922  0.2027 -0.2034
11597ION     CL21857   2.176  10.388   8.646  0.2934 -0.0333  0.0255
11598ION     CL21858   6.424   4.195   8.085  0.0105  0.1293  0.0383
11599ION     CL21859  15.649   4.733   7.448 -0.3772  0.0602 -0.0116
11600ION     CL21860  10.117  14.489   1.194  0.3887  0.3119  0.1477
11601ION     CL21861   8.607  15.301   1.460 -0.3076  0.0704  0.1077
11602ION     CL21862  14.734   5.334   7.297 -0.0893 -0.1633 -0.0553
11603ION     CL21863  10.924  12.007   0.493  0.0724  0.0109 -0.0030
11604ION     CL21864   9.774   7.469   8.028 -0.0376 -0.2051  0.2226
11605ION     CL21865   9.978  13.111   7.297  0.1961  0.0120  0.0013
11606ION     CL21866   1.376   0.769   0.173  0.0312  0.0020  0.3113
11607ION     CL21867   8.206  15.346   0.505  0.2304  0.2197  0.0244
11608ION     CL21868   5.507  12.061   0.669 -0.1715 -0.3413 -0.1205
11609ION     CL21869   3.723   7.861   1.177 -0.1626  0.2242  0.1013
11610ION     CL21870   2.107  10.486   6.764  0.3408  0.0112  0.1315
11611ION     CL21871   5.518  14.474   7.512 -0.2729 -0.1481 -0.3956
11612ION     CL21872  10.782   0.046   1.635 -0.1524 -0.1753 -0.0131
11613ION     CL21873   9.083  13.996   0.256 -0.3044 -0.2422 -0.2310
11614ION     CL21874  15.562  11.738   1.057  0.1080 -0.1855 -0.1832
11615ION     CL21875   5.568  11.984   1.461 -0.0699  0.1701  0.1724
11616ION     CL21876  15.409   8.119   6.544 -0.1224  0.0783  0.1541
11617ION     CL21877  14.843  12.292   8.206  0.0611  0.0975  0.1677
11618ION     CL21878  10.310  13.524   8.188 -0.0959 -0.1169  0.4580
11619ION     CL21879  15.924   5.858   6.906  0.2243  0.2794  0.0054
11620ION     CL21880   3.849   1.220   6.780 -0.0449 -0.0135  0.2259
11621ION     CL21881   3.706  12.342   7.412  0.0199  0.4323 -0.0739
11622ION     CL21882   3.677  13.027   1.290 -0.0670 -0.0511 -0.3751
11623ION     CL21883  11.588   1.518   0.609 -0.1277  0.0239  0.1711
11624ION     CL21884  15.840   6.583   7.663 -0.2359 -0.0464  0.0859
11625ION     CL21885   6.663   3.447   7.428  0.3363  0.1322  0.1119
11626ION     CL21886  11.542   6.300   1.851  0.0304  0.4361  0.2721
11627ION     CL21887  11.584   8.772   2.028  0.1921  0.2432  0.3016
11628ION     CL21888  12.785  14.969   0.769 -0.2219 -0.0881  0.0135
11629ION     CL21889  12.310  15.814   0.631  0.1362  0.1256 -0.1545
11630ION     CL21890  11.830  15.797   1.937  0.1417  0.0381  0.1904
11631ION     CL21891   7.243  13.844   7.238  0.1773  0.0838  0.1895
11632ION     CL21892   3.216  12.630   0.599 -0.2094 -0.0184 -0.0434
11633ION     CL21893  14.187  10.751   0.230 -0.1799  0.0326  0.1144
11634ION     CL21894   7.655   6.594   7.134  0.5492  0.1191  0.1993
11635ION     CL21895  14.717  14.625   6.924  0.3879  0.1210 -0.1316
11636ION     CL21896  13.527   0.725   0.166 -0.0445 -0.3356  0.1394
11637ION     CL21897   9.914   4.515   0.558 -0.2841  0.0065  0.0298
11638ION     CL21898  11.217  10.218   8.474 -0.1334 -0.1944 -0.0478
11639ION     CL21899  15.961   1.725   1.192  0.0590  0.2119  0.2519
11640ION     CL21900   0.030  12.668   6.621  0.0351  0.0022  0.2619
11641ION     CL21901   8.374   8.041   7.922 -0.0452 -0.4642  0.2362
11642ION     CL21902  15.177   1.758   1.405 -0.1121  0.0034 -0.0607
11643ION     CL21903   6.747  13.819   8.089 -0.0991  0.2596 -0.0271
11644ION     CL21904   1.105   4.066   1.419 -0.2639 -0.2009 -0.0369
11645ION     CL21905  11.813   0.037   1.298 -0.4448 -0.0738 -0.1027
11646ION     CL21906  13.355  10.297   7.811 -0.0796  0.2178 -0.2350
11647ION     CL21907  10.944   6.142   0.883  0.1947 -0.2601  0.2965
11648ION     CL21908  12.196   4.760   1.300  0.0963 -0.0579  0.0683
11649ION     CL21909   8.280   4.876   7.012 -0.0498  0.0928  0.2497
11650ION     CL21910  15.207   3.088   7.208  0.1671  0.2282 -0.0665
11651ION     CL21911   0.978   1.380   8.182  0.1566  0.1478 -0.0012
11652ION     CL21912   4.685   4.967   0.328 -0.2237  0.0759  0.0223
11653ION     CL21913   3.563  10.699   6.953 -0.0232  0.1701  0.0009
11654ION     CL21914  10.643  11.769   7.367 -0.0651 -0.1983 -0.1898
11655ION     CL21915   9.581  15.177   1.801  0.0556 -0.1798  0.1024
11656ION     CL21916  12.328   1.589   1.741 -0.0471  0.1068 -0.1148
11657ION     CL21917  10.816  16.360   7.985  0.0944 -0.0091  0.2935
11658ION     CL21918   3.052  15.951   7.587 -0.0981 -0.0771 -0.3995
11659ION     CL21919   7.752  16.229   0.351  0.3854 -0.0517 -0.1737
11660ION     CL21920  10.950   9.491   8.578  0.0049  0.0843  0.0879
11661ION     CL21921  14.613   2.684   7.955  0.0418  0.1261 -0.1500
11662ION     CL21922   3.152   4.255   1.592 -0.0854 -0.0008  0.1040
11663ION     CL21923   7.513   7.040   1.738  0.0127  0.2936  0.1776
11664ION     CL21924   1.502   6.936   2.652  0.2231  0.3067  0.2082
11665ION     CL21925   1.069  10.186   1.467 -0.0142 -0.0569  0.1356
11666ION     CL21926  13.628  14.355   1.988 -0.1596 -0.4713  0.0884
11667ION     CL21927   6.646  12.492   8.651 -0.4221 -0.0865 -0.2484
11668ION     CL21928   0.600   7.795   7.011  0.0937 -0.0686  0.0735
11669ION     CL21929  14.884   4.643   1.526  0.2033  0.0956 -0.1522
11670ION     CL21930  15.000   6.022   1.103  0.0904  0.0517  0.1562
11671ION     CL21931   2.780   7.280   1.296  0.2049 -0.1273  0.2478
11672ION     CL21932   8.554   3.767   7.750  0.0925 -0.0850  0.1594
11673ION     CL21933  13.150   1.505   8.339 -0.2455 -0.3049  0.3167
11674ION     CL21934   1.234   3.458   6.493  0.1024 -0.0447  0.2378
11675ION     CL21935   0.625   5.235   1.291  0.0589  0.2113  0.2435
11676ION     CL21936   8.168   6.921   7.991 -0.0734  0.1889 -0.0495
11677ION     CL21937   4.617  14.607   1.528  0.2980  0.2143 -0.1649
11678ION     CL21938   9.522  13.611   1.482  0.0180  0.0545  0.0976
11679ION     CL21939  16.022  15.801   7.047 -0.1050  0.1460  0.1890
11680ION     CL21940   4.508   1.957   1.328  0.0218 -0.0886  0.0394
11681ION     CL21941   8.668  16.281   7.640  0.2137  0.0305  0.3649
  16.58899  16.58899   8.67749
