;
; MARTINI F216 fullerene model
; generated with /home/denfert/barnoud/internship/software/buildFUL.py
; by barnoud
; on 2011-05-12
;
; Category
; Synthetic nanoparticles
;
; Name
; F216 fullerene model
;
; Alias
; F216
; 
; Force field
; martini23_CNP
;
; Version
; 1.0
;

[ moleculetype ]
; Name            nrexcl
F216                 1

[ atoms ]
;   nr       type  resnr residue  atom    cgnr     charge       mass
     1        CNP      1     F216   C001     1  0.000000  45.000000
     2        CNP      1     F216   C002     2  0.000000  45.000000
     3        CNP      1     F216   C003     3  0.000000  45.000000
     4        CNP      1     F216   C004     4  0.000000  45.000000
     5        CNP      1     F216   C005     5  0.000000  45.000000
     6        CNP      1     F216   C006     6  0.000000  45.000000
     7        CNP      1     F216   C007     7  0.000000  45.000000
     8        CNP      1     F216   C008     8  0.000000  45.000000
     9        CNP      1     F216   C009     9  0.000000  45.000000
    10        CNP      1     F216   C010    10  0.000000  45.000000
    11        CNP      1     F216   C011    11  0.000000  45.000000
    12        CNP      1     F216   C012    12  0.000000  45.000000
    13        CNP      1     F216   C013    13  0.000000  45.000000
    14        CNP      1     F216   C014    14  0.000000  45.000000
    15        CNP      1     F216   C015    15  0.000000  45.000000
    16        CNP      1     F216   C016    16  0.000000  45.000000
    17        CNP      1     F216   C017    17  0.000000  45.000000
    18        CNP      1     F216   C018    18  0.000000  45.000000
    19        CNP      1     F216   C019    19  0.000000  45.000000
    20        CNP      1     F216   C020    20  0.000000  45.000000
    21        CNP      1     F216   C021    21  0.000000  45.000000
    22        CNP      1     F216   C022    22  0.000000  45.000000
    23        CNP      1     F216   C023    23  0.000000  45.000000
    24        CNP      1     F216   C024    24  0.000000  45.000000
    25        CNP      1     F216   C025    25  0.000000  45.000000
    26        CNP      1     F216   C026    26  0.000000  45.000000
    27        CNP      1     F216   C027    27  0.000000  45.000000
    28        CNP      1     F216   C028    28  0.000000  45.000000
    29        CNP      1     F216   C029    29  0.000000  45.000000
    30        CNP      1     F216   C030    30  0.000000  45.000000
    31        CNP      1     F216   C031    31  0.000000  45.000000
    32        CNP      1     F216   C032    32  0.000000  45.000000
    33        CNP      1     F216   C033    33  0.000000  45.000000
    34        CNP      1     F216   C034    34  0.000000  45.000000
    35        CNP      1     F216   C035    35  0.000000  45.000000
    36        CNP      1     F216   C036    36  0.000000  45.000000
    37        CNP      1     F216   C037    37  0.000000  45.000000
    38        CNP      1     F216   C038    38  0.000000  45.000000
    39        CNP      1     F216   C039    39  0.000000  45.000000
    40        CNP      1     F216   C040    40  0.000000  45.000000
    41        CNP      1     F216   C041    41  0.000000  45.000000
    42        CNP      1     F216   C042    42  0.000000  45.000000
    43        CNP      1     F216   C043    43  0.000000  45.000000
    44        CNP      1     F216   C044    44  0.000000  45.000000
    45        CNP      1     F216   C045    45  0.000000  45.000000
    46        CNP      1     F216   C046    46  0.000000  45.000000
    47        CNP      1     F216   C047    47  0.000000  45.000000
    48        CNP      1     F216   C048    48  0.000000  45.000000
    49        CNP      1     F216   C049    49  0.000000  45.000000
    50        CNP      1     F216   C050    50  0.000000  45.000000
    51        CNP      1     F216   C051    51  0.000000  45.000000
    52        CNP      1     F216   C052    52  0.000000  45.000000
    53        CNP      1     F216   C053    53  0.000000  45.000000
    54        CNP      1     F216   C054    54  0.000000  45.000000
    55        CNP      1     F216   C055    55  0.000000  45.000000
    56        CNP      1     F216   C056    56  0.000000  45.000000
    57        CNP      1     F216   C057    57  0.000000  45.000000
    58        CNP      1     F216   C058    58  0.000000  45.000000
    59        CNP      1     F216   C059    59  0.000000  45.000000
    60        CNP      1     F216   C060    60  0.000000  45.000000
    61        CNP      1     F216   C061    61  0.000000  45.000000
    62        CNP      1     F216   C062    62  0.000000  45.000000
    63        CNP      1     F216   C063    63  0.000000  45.000000
    64        CNP      1     F216   C064    64  0.000000  45.000000
    65        CNP      1     F216   C065    65  0.000000  45.000000
    66        CNP      1     F216   C066    66  0.000000  45.000000
    67        CNP      1     F216   C067    67  0.000000  45.000000
    68        CNP      1     F216   C068    68  0.000000  45.000000
    69        CNP      1     F216   C069    69  0.000000  45.000000
    70        CNP      1     F216   C070    70  0.000000  45.000000
    71        CNP      1     F216   C071    71  0.000000  45.000000
    72        CNP      1     F216   C072    72  0.000000  45.000000
    73        CNP      1     F216   C073    73  0.000000  45.000000
    74        CNP      1     F216   C074    74  0.000000  45.000000
    75        CNP      1     F216   C075    75  0.000000  45.000000
    76        CNP      1     F216   C076    76  0.000000  45.000000
    77        CNP      1     F216   C077    77  0.000000  45.000000
    78        CNP      1     F216   C078    78  0.000000  45.000000
    79        CNP      1     F216   C079    79  0.000000  45.000000
    80        CNP      1     F216   C080    80  0.000000  45.000000
    81        CNP      1     F216   C081    81  0.000000  45.000000
    82        CNP      1     F216   C082    82  0.000000  45.000000
    83        CNP      1     F216   C083    83  0.000000  45.000000
    84        CNP      1     F216   C084    84  0.000000  45.000000
    85        CNP      1     F216   C085    85  0.000000  45.000000
    86        CNP      1     F216   C086    86  0.000000  45.000000
    87        CNP      1     F216   C087    87  0.000000  45.000000
    88        CNP      1     F216   C088    88  0.000000  45.000000
    89        CNP      1     F216   C089    89  0.000000  45.000000
    90        CNP      1     F216   C090    90  0.000000  45.000000
    91        CNP      1     F216   C091    91  0.000000  45.000000
    92        CNP      1     F216   C092    92  0.000000  45.000000
    93        CNP      1     F216   C093    93  0.000000  45.000000
    94        CNP      1     F216   C094    94  0.000000  45.000000
    95        CNP      1     F216   C095    95  0.000000  45.000000
    96        CNP      1     F216   C096    96  0.000000  45.000000
    97        CNP      1     F216   C097    97  0.000000  45.000000
    98        CNP      1     F216   C098    98  0.000000  45.000000
    99        CNP      1     F216   C099    99  0.000000  45.000000
   100        CNP      1     F216   C100   100  0.000000  45.000000
   101        CNP      1     F216   C101   101  0.000000  45.000000
   102        CNP      1     F216   C102   102  0.000000  45.000000
   103        CNP      1     F216   C103   103  0.000000  45.000000
   104        CNP      1     F216   C104   104  0.000000  45.000000
   105        CNP      1     F216   C105   105  0.000000  45.000000
   106        CNP      1     F216   C106   106  0.000000  45.000000
   107        CNP      1     F216   C107   107  0.000000  45.000000
   108        CNP      1     F216   C108   108  0.000000  45.000000
   109        CNP      1     F216   C109   109  0.000000  45.000000
   110        CNP      1     F216   C110   110  0.000000  45.000000
   111        CNP      1     F216   C111   111  0.000000  45.000000
   112        CNP      1     F216   C112   112  0.000000  45.000000
   113        CNP      1     F216   C113   113  0.000000  45.000000
   114        CNP      1     F216   C114   114  0.000000  45.000000
   115        CNP      1     F216   C115   115  0.000000  45.000000
   116        CNP      1     F216   C116   116  0.000000  45.000000
   117        CNP      1     F216   C117   117  0.000000  45.000000
   118        CNP      1     F216   C118   118  0.000000  45.000000
   119        CNP      1     F216   C119   119  0.000000  45.000000
   120        CNP      1     F216   C120   120  0.000000  45.000000
   121        CNP      1     F216   C121   121  0.000000  45.000000
   122        CNP      1     F216   C122   122  0.000000  45.000000
   123        CNP      1     F216   C123   123  0.000000  45.000000
   124        CNP      1     F216   C124   124  0.000000  45.000000
   125        CNP      1     F216   C125   125  0.000000  45.000000
   126        CNP      1     F216   C126   126  0.000000  45.000000
   127        CNP      1     F216   C127   127  0.000000  45.000000
   128        CNP      1     F216   C128   128  0.000000  45.000000
   129        CNP      1     F216   C129   129  0.000000  45.000000
   130        CNP      1     F216   C130   130  0.000000  45.000000
   131        CNP      1     F216   C131   131  0.000000  45.000000
   132        CNP      1     F216   C132   132  0.000000  45.000000
   133        CNP      1     F216   C133   133  0.000000  45.000000
   134        CNP      1     F216   C134   134  0.000000  45.000000
   135        CNP      1     F216   C135   135  0.000000  45.000000
   136        CNP      1     F216   C136   136  0.000000  45.000000
   137        CNP      1     F216   C137   137  0.000000  45.000000
   138        CNP      1     F216   C138   138  0.000000  45.000000
   139        CNP      1     F216   C139   139  0.000000  45.000000
   140        CNP      1     F216   C140   140  0.000000  45.000000
   141        CNP      1     F216   C141   141  0.000000  45.000000
   142        CNP      1     F216   C142   142  0.000000  45.000000
   143        CNP      1     F216   C143   143  0.000000  45.000000
   144        CNP      1     F216   C144   144  0.000000  45.000000
   145        CNP      1     F216   C145   145  0.000000  45.000000
   146        CNP      1     F216   C146   146  0.000000  45.000000
   147        CNP      1     F216   C147   147  0.000000  45.000000
   148        CNP      1     F216   C148   148  0.000000  45.000000
   149        CNP      1     F216   C149   149  0.000000  45.000000
   150        CNP      1     F216   C150   150  0.000000  45.000000
   151        CNP      1     F216   C151   151  0.000000  45.000000
   152        CNP      1     F216   C152   152  0.000000  45.000000
   153        CNP      1     F216   C153   153  0.000000  45.000000
   154        CNP      1     F216   C154   154  0.000000  45.000000
   155        CNP      1     F216   C155   155  0.000000  45.000000
   156        CNP      1     F216   C156   156  0.000000  45.000000
   157        CNP      1     F216   C157   157  0.000000  45.000000
   158        CNP      1     F216   C158   158  0.000000  45.000000
   159        CNP      1     F216   C159   159  0.000000  45.000000
   160        CNP      1     F216   C160   160  0.000000  45.000000
   161        CNP      1     F216   C161   161  0.000000  45.000000
   162        CNP      1     F216   C162   162  0.000000  45.000000
   163        CNP      1     F216   C163   163  0.000000  45.000000
   164        CNP      1     F216   C164   164  0.000000  45.000000
   165        CNP      1     F216   C165   165  0.000000  45.000000
   166        CNP      1     F216   C166   166  0.000000  45.000000
   167        CNP      1     F216   C167   167  0.000000  45.000000
   168        CNP      1     F216   C168   168  0.000000  45.000000
   169        CNP      1     F216   C169   169  0.000000  45.000000
   170        CNP      1     F216   C170   170  0.000000  45.000000
   171        CNP      1     F216   C171   171  0.000000  45.000000
   172        CNP      1     F216   C172   172  0.000000  45.000000
   173        CNP      1     F216   C173   173  0.000000  45.000000
   174        CNP      1     F216   C174   174  0.000000  45.000000
   175        CNP      1     F216   C175   175  0.000000  45.000000
   176        CNP      1     F216   C176   176  0.000000  45.000000
   177        CNP      1     F216   C177   177  0.000000  45.000000
   178        CNP      1     F216   C178   178  0.000000  45.000000
   179        CNP      1     F216   C179   179  0.000000  45.000000
   180        CNP      1     F216   C180   180  0.000000  45.000000
   181        CNP      1     F216   C181   181  0.000000  45.000000
   182        CNP      1     F216   C182   182  0.000000  45.000000
   183        CNP      1     F216   C183   183  0.000000  45.000000
   184        CNP      1     F216   C184   184  0.000000  45.000000
   185        CNP      1     F216   C185   185  0.000000  45.000000
   186        CNP      1     F216   C186   186  0.000000  45.000000
   187        CNP      1     F216   C187   187  0.000000  45.000000
   188        CNP      1     F216   C188   188  0.000000  45.000000
   189        CNP      1     F216   C189   189  0.000000  45.000000
   190        CNP      1     F216   C190   190  0.000000  45.000000
   191        CNP      1     F216   C191   191  0.000000  45.000000
   192        CNP      1     F216   C192   192  0.000000  45.000000
   193        CNP      1     F216   C193   193  0.000000  45.000000
   194        CNP      1     F216   C194   194  0.000000  45.000000
   195        CNP      1     F216   C195   195  0.000000  45.000000
   196        CNP      1     F216   C196   196  0.000000  45.000000
   197        CNP      1     F216   C197   197  0.000000  45.000000
   198        CNP      1     F216   C198   198  0.000000  45.000000
   199        CNP      1     F216   C199   199  0.000000  45.000000
   200        CNP      1     F216   C200   200  0.000000  45.000000
   201        CNP      1     F216   C201   201  0.000000  45.000000
   202        CNP      1     F216   C202   202  0.000000  45.000000
   203        CNP      1     F216   C203   203  0.000000  45.000000
   204        CNP      1     F216   C204   204  0.000000  45.000000
   205        CNP      1     F216   C205   205  0.000000  45.000000
   206        CNP      1     F216   C206   206  0.000000  45.000000
   207        CNP      1     F216   C207   207  0.000000  45.000000
   208        CNP      1     F216   C208   208  0.000000  45.000000
   209        CNP      1     F216   C209   209  0.000000  45.000000
   210        CNP      1     F216   C210   210  0.000000  45.000000
   211        CNP      1     F216   C211   211  0.000000  45.000000
   212        CNP      1     F216   C212   212  0.000000  45.000000
   213        CNP      1     F216   C213   213  0.000000  45.000000
   214        CNP      1     F216   C214   214  0.000000  45.000000
   215        CNP      1     F216   C215   215  0.000000  45.000000
   216        CNP      1     F216   C216   216  0.000000  45.000000

[ bonds ]
;         i           j    funct      length    force_k
         1          2     1         0.352663    3000.000000
         1          3     1         0.414175    3000.000000
         1          4     1         0.388857    3000.000000
         1          5     1         0.363673    3000.000000
         1          6     1         0.371283    3000.000000
         1          7     1         0.423699    3000.000000
         1          8     1         0.567103    3000.000000
         1          9     1         0.692472    3000.000000
         1         10     1         0.691275    3000.000000
         1         11     1         0.766750    3000.000000
         1         12     1         0.719398    3000.000000
         1         13     1         0.744695    3000.000000
         1         14     1         0.670019    3000.000000
         1         15     1         0.712054    3000.000000
         1         16     1         0.649210    3000.000000
         1         17     1         0.727083    3000.000000
         1         18     1         0.733639    3000.000000
         1         19     1         0.790246    3000.000000
         1         20     1         0.900214    3000.000000
         1         21     1         0.946114    3000.000000
         1         22     1         1.021393    3000.000000
         1         23     1         1.036759    3000.000000
         1         24     1         1.059908    3000.000000
         1         25     1         1.083833    3000.000000
         1         26     1         1.067285    3000.000000
         1         27     1         1.061507    3000.000000
         1         28     1         1.038125    3000.000000
         1         29     1         1.012848    3000.000000
         1         30     1         1.037826    3000.000000
         1         31     1         0.980231    3000.000000
         1         32     1         0.983794    3000.000000
         1         33     1         1.063762    3000.000000
         1         34     1         1.053319    3000.000000
         1         35     1         1.074101    3000.000000
         2          3     1         0.359814    3000.000000
         2          4     1         0.599391    3000.000000
         2          5     1         0.706547    3000.000000
         2          6     1         0.657005    3000.000000
         2          7     1         0.493240    3000.000000
         2          8     1         0.371463    3000.000000
         2          9     1         0.351330    3000.000000
         2         10     1         0.394444    3000.000000
         2         11     1         0.610349    3000.000000
         2         12     1         0.735789    3000.000000
         2         13     1         0.907769    3000.000000
         2         14     1         0.948166    3000.000000
         2         15     1         1.043853    3000.000000
         2         16     1         0.975408    3000.000000
         2         17     1         0.976855    3000.000000
         2         18     1         0.859938    3000.000000
         2         19     1         0.758843    3000.000000
         2         20     1         0.719782    3000.000000
         2         21     1         0.654889    3000.000000
         2         22     1         0.685075    3000.000000
         2         23     1         0.722145    3000.000000
         2         24     1         0.820884    3000.000000
         2         25     1         0.951042    3000.000000
         2         26     1         1.049883    3000.000000
         2         36     1         1.063769    3000.000000
         2         37     1         1.050483    3000.000000
         2         38     1         0.991690    3000.000000
         2         39     1         0.969250    3000.000000
         2         40     1         1.011095    3000.000000
         2         41     1         1.064757    3000.000000
         3          4     1         0.357381    3000.000000
         3          5     1         0.638201    3000.000000
         3          6     1         0.776241    3000.000000
         3          7     1         0.765735    3000.000000
         3          8     1         0.724803    3000.000000
         3          9     1         0.621480    3000.000000
         3         10     1         0.408911    3000.000000
         3         11     1         0.362041    3000.000000
         3         12     1         0.383085    3000.000000
         3         13     1         0.589662    3000.000000
         3         14     1         0.727727    3000.000000
         3         15     1         0.935683    3000.000000
         3         16     1         0.996113    3000.000000
         3         19     1         1.077820    3000.000000
         3         20     1         1.061961    3000.000000
         3         21     1         0.959463    3000.000000
         3         22     1         0.878982    3000.000000
         3         23     1         0.761231    3000.000000
         3         24     1         0.690986    3000.000000
         3         25     1         0.690007    3000.000000
         3         26     1         0.720539    3000.000000
         3         27     1         0.819844    3000.000000
         3         28     1         0.937427    3000.000000
         3         29     1         1.055485    3000.000000
         3         41     1         1.085225    3000.000000
         3         42     1         1.035057    3000.000000
         3         43     1         1.003397    3000.000000
         3         44     1         1.002839    3000.000000
         3         45     1         1.060828    3000.000000
         4          5     1         0.364225    3000.000000
         4          6     1         0.648013    3000.000000
         4          7     1         0.802453    3000.000000
         4          8     1         0.910157    3000.000000
         4          9     1         0.920599    3000.000000
         4         10     1         0.759124    3000.000000
         4         11     1         0.642322    3000.000000
         4         12     1         0.425475    3000.000000
         4         13     1         0.362249    3000.000000
         4         14     1         0.379796    3000.000000
         4         15     1         0.607259    3000.000000
         4         16     1         0.747497    3000.000000
         4         17     1         0.968873    3000.000000
         4         18     1         1.069620    3000.000000
         4         23     1         1.098747    3000.000000
         4         24     1         0.991007    3000.000000
         4         25     1         0.885559    3000.000000
         4         26     1         0.764827    3000.000000
         4         27     1         0.697212    3000.000000
         4         28     1         0.678989    3000.000000
         4         29     1         0.729242    3000.000000
         4         30     1         0.871021    3000.000000
         4         31     1         0.954176    3000.000000
         4         32     1         1.092347    3000.000000
         4         45     1         1.054915    3000.000000
         4         46     1         1.027574    3000.000000
         4         47     1         1.011356    3000.000000
         4         48     1         1.016615    3000.000000
         4         49     1         1.083344    3000.000000
         5          6     1         0.366143    3000.000000
         5          7     1         0.653093    3000.000000
         5          8     1         0.894388    3000.000000
         5          9     1         1.039124    3000.000000
         5         10     1         0.994252    3000.000000
         5         11     1         0.966710    3000.000000
         5         12     1         0.781607    3000.000000
         5         13     1         0.632016    3000.000000
         5         14     1         0.396561    3000.000000
         5         15     1         0.354078    3000.000000
         5         16     1         0.390676    3000.000000
         5         17     1         0.640345    3000.000000
         5         18     1         0.818353    3000.000000
         5         19     1         1.003413    3000.000000
         5         26     1         1.099930    3000.000000
         5         27     1         0.974428    3000.000000
         5         28     1         0.830124    3000.000000
         5         29     1         0.709714    3000.000000
         5         30     1         0.691353    3000.000000
         5         31     1         0.656027    3000.000000
         5         32     1         0.749758    3000.000000
         5         33     1         0.941001    3000.000000
         5         34     1         1.052125    3000.000000
         5         48     1         1.053399    3000.000000
         5         49     1         0.994271    3000.000000
         5         50     1         0.995340    3000.000000
         5         51     1         0.999820    3000.000000
         5         52     1         1.075599    3000.000000
         6          7     1         0.355598    3000.000000
         6          8     1         0.682399    3000.000000
         6          9     1         0.939030    3000.000000
         6         10     1         1.024089    3000.000000
         6         12     1         1.035294    3000.000000
         6         13     1         0.964739    3000.000000
         6         14     1         0.754524    3000.000000
         6         15     1         0.606895    3000.000000
         6         16     1         0.368512    3000.000000
         6         17     1         0.362360    3000.000000
         6         18     1         0.461442    3000.000000
         6         19     1         0.674527    3000.000000
         6         20     1         0.920729    3000.000000
         6         21     1         1.091806    3000.000000
         6         29     1         1.033397    3000.000000
         6         30     1         0.930052    3000.000000
         6         31     1         0.750875    3000.000000
         6         32     1         0.657954    3000.000000
         6         33     1         0.709981    3000.000000
         6         34     1         0.734446    3000.000000
         6         35     1         0.842573    3000.000000
         6         36     1         1.012605    3000.000000
         6         51     1         1.051971    3000.000000
         6         52     1         1.002806    3000.000000
         6         53     1         1.030785    3000.000000
         6         54     1         1.024213    3000.000000
         6         55     1         1.082222    3000.000000
         7          8     1         0.355062    3000.000000
         7          9     1         0.676755    3000.000000
         7         10     1         0.868941    3000.000000
         7         11     1         1.070193    3000.000000
         7         14     1         1.022099    3000.000000
         7         15     1         0.941006    3000.000000
         7         16     1         0.711063    3000.000000
         7         17     1         0.560040    3000.000000
         7         18     1         0.376522    3000.000000
         7         19     1         0.378889    3000.000000
         7         20     1         0.578724    3000.000000
         7         21     1         0.768446    3000.000000
         7         22     1         0.989176    3000.000000
         7         31     1         1.082231    3000.000000
         7         32     1         0.937280    3000.000000
         7         33     1         0.868316    3000.000000
         7         34     1         0.735487    3000.000000
         7         35     1         0.680595    3000.000000
         7         36     1         0.741875    3000.000000
         7         37     1         0.888471    3000.000000
         7         38     1         1.004692    3000.000000
         7         54     1         1.080848    3000.000000
         7         55     1         1.020488    3000.000000
         7         56     1         1.022579    3000.000000
         7         57     1         1.084359    3000.000000
         8          9     1         0.361887    3000.000000
         8         10     1         0.650295    3000.000000
         8         11     1         0.940224    3000.000000
         8         12     1         1.088436    3000.000000
         8         16     1         1.034691    3000.000000
         8         17     1         0.900360    3000.000000
         8         18     1         0.658453    3000.000000
         8         19     1         0.436259    3000.000000
         8         20     1         0.360662    3000.000000
         8         21     1         0.429336    3000.000000
         8         22     1         0.654890    3000.000000
         8         23     1         0.857012    3000.000000
         8         24     1         1.066205    3000.000000
         8         34     1         0.992626    3000.000000
         8         35     1         0.821641    3000.000000
         8         36     1         0.714925    3000.000000
         8         37     1         0.707606    3000.000000
         8         38     1         0.718539    3000.000000
         8         39     1         0.816070    3000.000000
         8         40     1         0.988009    3000.000000
         8         56     1         1.095393    3000.000000
         8         57     1         1.041957    3000.000000
         8         58     1         1.039579    3000.000000
         8         59     1         1.027228    3000.000000
         8         60     1         1.068543    3000.000000
         9         10     1         0.356798    3000.000000
         9         11     1         0.701332    3000.000000
         9         12     1         0.948879    3000.000000
         9         18     1         1.002430    3000.000000
         9         19     1         0.777914    3000.000000
         9         20     1         0.575697    3000.000000
         9         21     1         0.357112    3000.000000
         9         22     1         0.349046    3000.000000
         9         23     1         0.504732    3000.000000
         9         24     1         0.746058    3000.000000
         9         25     1         0.995815    3000.000000
         9         36     1         0.986940    3000.000000
         9         37     1         0.859385    3000.000000
         9         38     1         0.706584    3000.000000
         9         39     1         0.632943    3000.000000
         9         40     1         0.695598    3000.000000
         9         41     1         0.822089    3000.000000
         9         42     1         0.983611    3000.000000
         9         59     1         1.044998    3000.000000
         9         60     1         0.960792    3000.000000
         9         61     1         0.960096    3000.000000
         9         62     1         1.037280    3000.000000
        10         11     1         0.355018    3000.000000
        10         12     1         0.652477    3000.000000
        10         13     1         0.946692    3000.000000
        10         19     1         1.067345    3000.000000
        10         20     1         0.916859    3000.000000
        10         21     1         0.690856    3000.000000
        10         22     1         0.504343    3000.000000
        10         23     1         0.369460    3000.000000
        10         24     1         0.443447    3000.000000
        10         25     1         0.655665    3000.000000
        10         26     1         0.865873    3000.000000
        10         27     1         1.084786    3000.000000
        10         38     1         1.015358    3000.000000
        10         39     1         0.853149    3000.000000
        10         40     1         0.758215    3000.000000
        10         41     1         0.720506    3000.000000
        10         42     1         0.756752    3000.000000
        10         43     1         0.858267    3000.000000
        10         44     1         1.006456    3000.000000
        10         61     1         1.087791    3000.000000
        10         62     1         1.038393    3000.000000
        10         63     1         1.044826    3000.000000
        10         64     1         1.094868    3000.000000
        11         12     1         0.356258    3000.000000
        11         13     1         0.698825    3000.000000
        11         14     1         0.956414    3000.000000
        11         21     1         1.030257    3000.000000
        11         22     1         0.821027    3000.000000
        11         23     1         0.569471    3000.000000
        11         24     1         0.364386    3000.000000
        11         25     1         0.353919    3000.000000
        11         26     1         0.520590    3000.000000
        11         27     1         0.767392    3000.000000
        11         28     1         1.012180    3000.000000
        11         40     1         0.995001    3000.000000
        11         41     1         0.837583    3000.000000
        11         42     1         0.712298    3000.000000
        11         43     1         0.656940    3000.000000
        11         44     1         0.705651    3000.000000
        11         45     1         0.858618    3000.000000
        11         46     1         1.046247    3000.000000
        11         63     1         1.090538    3000.000000
        11         64     1         1.024386    3000.000000
        11         65     1         0.997716    3000.000000
        11         66     1         1.016827    3000.000000
        12         13     1         0.352535    3000.000000
        12         14     1         0.655707    3000.000000
        12         15     1         0.967331    3000.000000
        12         23     1         0.913392    3000.000000
        12         24     1         0.687410    3000.000000
        12         25     1         0.486821    3000.000000
        12         26     1         0.365095    3000.000000
        12         27     1         0.460619    3000.000000
        12         28     1         0.671923    3000.000000
        12         29     1         0.900819    3000.000000
        12         42     1         0.996791    3000.000000
        12         43     1         0.834917    3000.000000
        12         44     1         0.712870    3000.000000
        12         45     1         0.704137    3000.000000
        12         46     1         0.789734    3000.000000
        12         47     1         0.915114    3000.000000
        12         48     1         1.064643    3000.000000
        12         66     1         1.054274    3000.000000
        12         67     1         1.022594    3000.000000
        12         68     1         1.045223    3000.000000
        13         14     1         0.354684    3000.000000
        13         15     1         0.702438    3000.000000
        13         16     1         0.963465    3000.000000
        13         24     1         1.024460    3000.000000
        13         25     1         0.796031    3000.000000
        13         26     1         0.545400    3000.000000
        13         27     1         0.356950    3000.000000
        13         28     1         0.360269    3000.000000
        13         29     1         0.559577    3000.000000
        13         30     1         0.831517    3000.000000
        13         31     1         1.041316    3000.000000
        13         44     1         0.917674    3000.000000
        13         45     1         0.765628    3000.000000
        13         46     1         0.685362    3000.000000
        13         47     1         0.677777    3000.000000
        13         48     1         0.754168    3000.000000
        13         49     1         0.925694    3000.000000
        13         68     1         1.012135    3000.000000
        13         69     1         0.975564    3000.000000
        13         70     1         1.008426    3000.000000
        13         71     1         1.094567    3000.000000
        14         15     1         0.354674    3000.000000
        14         16     1         0.654417    3000.000000
        14         17     1         0.975439    3000.000000
        14         26     1         0.889493    3000.000000
        14         27     1         0.663562    3000.000000
        14         28     1         0.446919    3000.000000
        14         29     1         0.363916    3000.000000
        14         30     1         0.523463    3000.000000
        14         31     1         0.703171    3000.000000
        14         32     1         0.947748    3000.000000
        14         45     1         1.077798    3000.000000
        14         46     1         0.926723    3000.000000
        14         47     1         0.788220    3000.000000
        14         48     1         0.694891    3000.000000
        14         49     1         0.722465    3000.000000
        14         50     1         0.863943    3000.000000
        14         51     1         1.010656    3000.000000
        14         70     1         1.052012    3000.000000
        14         71     1         1.017637    3000.000000
        14         72     1         1.060527    3000.000000
        15         16     1         0.356891    3000.000000
        15         17     1         0.712742    3000.000000
        15         18     1         0.996593    3000.000000
        15         27     1         0.997769    3000.000000
        15         28     1         0.734867    3000.000000
        15         29     1         0.477901    3000.000000
        15         30     1         0.347830    3000.000000
        15         31     1         0.366917    3000.000000
        15         32     1         0.609805    3000.000000
        15         33     1         0.907844    3000.000000
        15         47     1         1.027450    3000.000000
        15         48     1         0.825666    3000.000000
        15         49     1         0.683199    3000.000000
        15         50     1         0.656659    3000.000000
        15         51     1         0.708273    3000.000000
        15         52     1         0.873280    3000.000000
        15         53     1         1.096399    3000.000000
        15         71     1         1.072702    3000.000000
        15         72     1         0.994679    3000.000000
        15         73     1         0.993191    3000.000000
        15         74     1         1.016177    3000.000000
        16         17     1         0.362174    3000.000000
        16         18     1         0.675347    3000.000000
        16         19     1         0.971110    3000.000000
        16         28     1         1.062500    3000.000000
        16         29     1         0.825098    3000.000000
        16         30     1         0.625266    3000.000000
        16         31     1         0.389896    3000.000000
        16         32     1         0.367082    3000.000000
        16         33     1         0.591113    3000.000000
        16         34     1         0.788851    3000.000000
        16         35     1         1.020385    3000.000000
        16         49     1         0.972182    3000.000000
        16         50     1         0.824799    3000.000000
        16         51     1         0.705666    3000.000000
        16         52     1         0.713709    3000.000000
        16         53     1         0.846003    3000.000000
        16         54     1         0.963684    3000.000000
        16         74     1         1.047788    3000.000000
        16         75     1         1.034173    3000.000000
        17         18     1         0.357200    3000.000000
        17         19     1         0.700153    3000.000000
        17         20     1         1.023793    3000.000000
        17         30     1         0.957320    3000.000000
        17         31     1         0.664016    3000.000000
        17         32     1         0.408799    3000.000000
        17         33     1         0.354037    3000.000000
        17         34     1         0.441957    3000.000000
        17         35     1         0.678836    3000.000000
        17         36     1         0.956459    3000.000000
        17         50     1         1.089794    3000.000000
        17         51     1         0.874648    3000.000000
        17         52     1         0.723348    3000.000000
        17         53     1         0.690949    3000.000000
        17         54     1         0.687471    3000.000000
        17         55     1         0.807860    3000.000000
        17         56     1         0.999738    3000.000000
        17         75     1         1.064982    3000.000000
        17         76     1         1.012000    3000.000000
        17         77     1         0.982851    3000.000000
        17         78     1         1.040045    3000.000000
        18         19     1         0.355874    3000.000000
        18         20     1         0.701716    3000.000000
        18         21     1         0.996007    3000.000000
        18         31     1         1.003957    3000.000000
        18         32     1         0.748682    3000.000000
        18         33     1         0.560958    3000.000000
        18         34     1         0.365467    3000.000000
        18         35     1         0.390853    3000.000000
        18         36     1         0.620363    3000.000000
        18         37     1         0.899078    3000.000000
        18         52     1         1.014618    3000.000000
        18         53     1         0.881714    3000.000000
        18         54     1         0.725396    3000.000000
        18         55     1         0.675830    3000.000000
        18         56     1         0.753738    3000.000000
        18         57     1         0.920573    3000.000000
        18         77     1         1.070120    3000.000000
        18         78     1         1.000877    3000.000000
        18         79     1         1.015973    3000.000000
        19         20     1         0.355720    3000.000000
        19         21     1         0.683446    3000.000000
        19         22     1         1.002019    3000.000000
        19         32     1         1.085325    3000.000000
        19         33     1         0.890783    3000.000000
        19         34     1         0.621340    3000.000000
        19         35     1         0.394500    3000.000000
        19         36     1         0.369364    3000.000000
        19         37     1         0.572828    3000.000000
        19         38     1         0.791708    3000.000000
        19         39     1         1.034658    3000.000000
        19         54     1         0.963407    3000.000000
        19         55     1         0.788194    3000.000000
        19         56     1         0.696713    3000.000000
        19         57     1         0.724159    3000.000000
        19         58     1         0.851298    3000.000000
        19         59     1         0.987411    3000.000000
        19         79     1         1.039598    3000.000000
        19         80     1         1.012923    3000.000000
        19         81     1         1.066405    3000.000000
        20         21     1         0.357612    3000.000000
        20         22     1         0.710176    3000.000000
        20         23     1         1.008481    3000.000000
        20         34     1         0.952542    3000.000000
        20         35     1         0.673204    3000.000000
        20         36     1         0.431023    3000.000000
        20         37     1         0.353142    3000.000000
        20         38     1         0.456703    3000.000000
        20         39     1         0.696234    3000.000000
        20         40     1         0.977770    3000.000000
        20         55     1         1.046637    3000.000000
        20         56     1         0.854547    3000.000000
        20         57     1         0.725386    3000.000000
        20         58     1         0.695212    3000.000000
        20         59     1         0.717773    3000.000000
        20         60     1         0.846519    3000.000000
        20         61     1         1.055869    3000.000000
        20         80     1         1.076090    3000.000000
        20         81     1         1.007258    3000.000000
        20         82     1         1.009923    3000.000000
        20         83     1         1.054689    3000.000000
        21         22     1         0.362789    3000.000000
        21         23     1         0.690742    3000.000000
        21         24     1         1.002981    3000.000000
        21         35     1         1.015394    3000.000000
        21         36     1         0.762420    3000.000000
        21         37     1         0.544811    3000.000000
        21         38     1         0.357091    3000.000000
        21         39     1         0.398846    3000.000000
        21         40     1         0.640027    3000.000000
        21         41     1         0.898819    3000.000000
        21         57     1         0.989669    3000.000000
        21         58     1         0.845852    3000.000000
        21         59     1         0.706050    3000.000000
        21         60     1         0.668667    3000.000000
        21         61     1         0.778771    3000.000000
        21         62     1         0.979903    3000.000000
        21         82     1         1.090441    3000.000000
        21         83     1         1.016734    3000.000000
        21         84     1         1.011452    3000.000000
        21         85     1         1.088366    3000.000000
        22         23     1         0.352018    3000.000000
        22         24     1         0.696370    3000.000000
        22         25     1         1.022390    3000.000000
        22         37     1         0.872891    3000.000000
        22         38     1         0.594779    3000.000000
        22         39     1         0.359575    3000.000000
        22         40     1         0.353918    3000.000000
        22         41     1         0.553291    3000.000000
        22         42     1         0.810320    3000.000000
        22         43     1         1.072528    3000.000000
        22         59     1         0.904072    3000.000000
        22         60     1         0.714050    3000.000000
        22         61     1         0.635891    3000.000000
        22         62     1         0.710871    3000.000000
        22         63     1         0.884496    3000.000000
        22         64     1         1.090234    3000.000000
        22         84     1         1.022395    3000.000000
        22         85     1         0.979002    3000.000000
        22         86     1         1.016738    3000.000000
        23         24     1         0.355193    3000.000000
        23         25     1         0.703507    3000.000000
        23         26     1         1.007854    3000.000000
        23         38     1         0.932807    3000.000000
        23         39     1         0.660794    3000.000000
        23         40     1         0.441102    3000.000000
        23         41     1         0.361267    3000.000000
        23         42     1         0.499665    3000.000000
        23         43     1         0.739922    3000.000000
        23         44     1         1.006925    3000.000000
        23         60     1         0.986957    3000.000000
        23         61     1         0.795426    3000.000000
        23         62     1         0.689191    3000.000000
        23         63     1         0.708042    3000.000000
        23         64     1         0.826611    3000.000000
        23         65     1         0.995536    3000.000000
        23         86     1         1.031288    3000.000000
        23         87     1         1.018684    3000.000000
        23         88     1         1.072726    3000.000000
        24         25     1         0.360092    3000.000000
        24         26     1         0.692330    3000.000000
        24         27     1         1.009585    3000.000000
        24         39     1         0.999604    3000.000000
        24         40     1         0.746807    3000.000000
        24         41     1         0.508948    3000.000000
        24         42     1         0.360174    3000.000000
        24         43     1         0.434026    3000.000000
        24         44     1         0.668548    3000.000000
        24         45     1         0.946012    3000.000000
        24         61     1         1.081306    3000.000000
        24         62     1         0.882500    3000.000000
        24         63     1         0.745036    3000.000000
        24         64     1         0.700061    3000.000000
        24         65     1         0.753953    3000.000000
        24         66     1         0.886199    3000.000000
        24         67     1         1.080042    3000.000000
        24         87     1         1.086019    3000.000000
        24         88     1         1.022586    3000.000000
        24         89     1         1.025224    3000.000000
        24         90     1         1.094708    3000.000000
        25         26     1         0.350338    3000.000000
        25         27     1         0.693983    3000.000000
        25         28     1         1.021463    3000.000000
        25         40     1         1.087099    3000.000000
        25         41     1         0.830045    3000.000000
        25         42     1         0.569494    3000.000000
        25         43     1         0.357660    3000.000000
        25         44     1         0.366283    3000.000000
        25         45     1         0.602506    3000.000000
        25         46     1         0.876622    3000.000000
        25         63     1         0.976822    3000.000000
        25         64     1         0.805829    3000.000000
        25         65     1         0.693551    3000.000000
        25         66     1         0.678122    3000.000000
        25         67     1         0.789281    3000.000000
        25         68     1         0.972317    3000.000000
        25         89     1         1.032052    3000.000000
        25         90     1         0.979568    3000.000000
        25         91     1         1.016474    3000.000000
        26         27     1         0.353418    3000.000000
        26         28     1         0.704725    3000.000000
        26         29     1         1.019559    3000.000000
        26         42     1         0.900201    3000.000000
        26         43     1         0.628110    3000.000000
        26         44     1         0.385707    3000.000000
        26         45     1         0.360559    3000.000000
        26         46     1         0.557507    3000.000000
        26         47     1         0.804433    3000.000000
        26         48     1         1.058632    3000.000000
        26         64     1         1.082009    3000.000000
        26         65     1         0.887742    3000.000000
        26         66     1         0.729242    3000.000000
        26         67     1         0.673858    3000.000000
        26         68     1         0.737735    3000.000000
        26         69     1         0.902567    3000.000000
        26         90     1         1.077672    3000.000000
        26         91     1         0.992502    3000.000000
        26         92     1         0.998173    3000.000000
        26         93     1         1.076250    3000.000000
        27         28     1         0.366029    3000.000000
        27         29     1         0.707006    3000.000000
        27         30     1         1.033676    3000.000000
        27         43     1         0.960861    3000.000000
        27         44     1         0.672082    3000.000000
        27         45     1         0.434202    3000.000000
        27         46     1         0.352809    3000.000000
        27         47     1         0.485634    3000.000000
        27         48     1         0.722413    3000.000000
        27         49     1         1.004843    3000.000000
        27         66     1         0.958875    3000.000000
        27         67     1         0.779996    3000.000000
        27         68     1         0.672941    3000.000000
        27         69     1         0.690330    3000.000000
        27         70     1         0.828733    3000.000000
        27         71     1         1.025395    3000.000000
        27         92     1         1.016849    3000.000000
        27         93     1         0.973031    3000.000000
        27         94     1         1.027628    3000.000000
        28         29     1         0.353929    3000.000000
        28         30     1         0.698704    3000.000000
        28         31     1         1.002878    3000.000000
        28         44     1         1.020867    3000.000000
        28         45     1         0.755218    3000.000000
        28         46     1         0.517449    3000.000000
        28         47     1         0.356664    3000.000000
        28         48     1         0.411047    3000.000000
        28         49     1         0.658524    3000.000000
        28         50     1         0.962982    3000.000000
        28         67     1         1.062278    3000.000000
        28         68     1         0.861017    3000.000000
        28         69     1         0.711354    3000.000000
        28         70     1         0.673092    3000.000000
        28         71     1         0.758300    3000.000000
        28         72     1         0.944819    3000.000000
        28         93     1         1.069334    3000.000000
        28         94     1         0.996966    3000.000000
        28         95     1         1.009223    3000.000000
        28         96     1         1.090157    3000.000000
        29         30     1         0.351450    3000.000000
        29         31     1         0.682291    3000.000000
        29         32     1         1.008582    3000.000000
        29         45     1         1.090401    3000.000000
        29         46     1         0.838572    3000.000000
        29         47     1         0.581213    3000.000000
        29         48     1         0.364530    3000.000000
        29         49     1         0.383713    3000.000000
        29         50     1         0.633402    3000.000000
        29         51     1         0.891408    3000.000000
        29         69     1         0.939315    3000.000000
        29         70     1         0.763872    3000.000000
        29         71     1         0.673309    3000.000000
        29         72     1         0.726745    3000.000000
        29         73     1         0.891853    3000.000000
        29         74     1         1.075794    3000.000000
        29         95     1         1.045461    3000.000000
        29         96     1         1.008745    3000.000000
        29         97     1         1.059174    3000.000000
        30         31     1         0.360441    3000.000000
        30         32     1         0.712188    3000.000000
        30         33     1         1.049679    3000.000000
        30         47     1         0.895217    3000.000000
        30         48     1         0.605517    3000.000000
        30         49     1         0.360318    3000.000000
        30         50     1         0.350920    3000.000000
        30         51     1         0.553628    3000.000000
        30         52     1         0.838661    3000.000000
        30         70     1         0.991134    3000.000000
        30         71     1         0.782105    3000.000000
        30         72     1         0.661919    3000.000000
        30         73     1         0.682224    3000.000000
        30         74     1         0.784493    3000.000000
        30         75     1         0.985629    3000.000000
        30         96     1         1.057879    3000.000000
        30         97     1         0.990040    3000.000000
        30         98     1         1.014139    3000.000000
        30         99     1         1.086680    3000.000000
        31         32     1         0.358712    3000.000000
        31         33     1         0.708577    3000.000000
        31         34     1         1.007842    3000.000000
        31         48     1         0.953078    3000.000000
        31         49     1         0.680815    3000.000000
        31         50     1         0.451510    3000.000000
        31         51     1         0.358695    3000.000000
        31         52     1         0.531456    3000.000000
        31         53     1         0.808363    3000.000000
        31         54     1         1.050033    3000.000000
        31         71     1         1.091057    3000.000000
        31         72     1         0.896448    3000.000000
        31         73     1         0.771166    3000.000000
        31         74     1         0.700426    3000.000000
        31         75     1         0.773988    3000.000000
        31         76     1         0.958638    3000.000000
        31         98     1         1.087403    3000.000000
        31         99     1         1.041395    3000.000000
        31        100     1         1.087615    3000.000000
        32         33     1         0.355597    3000.000000
        32         34     1         0.677149    3000.000000
        32         35     1         0.993862    3000.000000
        32         49     1         1.018943    3000.000000
        32         50     1         0.745419    3000.000000
        32         51     1         0.479671    3000.000000
        32         52     1         0.361668    3000.000000
        32         53     1         0.509425    3000.000000
        32         54     1         0.713180    3000.000000
        32         55     1         0.973900    3000.000000
        32         73     1         0.997896    3000.000000
        32         74     1         0.805254    3000.000000
        32         75     1         0.709085    3000.000000
        32         76     1         0.755948    3000.000000
        32         77     1         0.873282    3000.000000
        32         78     1         1.069369    3000.000000
        32        100     1         1.051020    3000.000000
        32        101     1         1.067702    3000.000000
        33         34     1         0.352224    3000.000000
        33         35     1         0.698931    3000.000000
        33         36     1         1.033779    3000.000000
        33         50     1         1.066185    3000.000000
        33         51     1         0.765013    3000.000000
        33         52     1         0.491598    3000.000000
        33         53     1         0.348415    3000.000000
        33         54     1         0.387564    3000.000000
        33         55     1         0.631815    3000.000000
        33         56     1         0.920283    3000.000000
        33         74     1         1.023487    3000.000000
        33         75     1         0.812214    3000.000000
        33         76     1         0.688456    3000.000000
        33         77     1         0.647736    3000.000000
        33         78     1         0.764101    3000.000000
        33         79     1         0.977239    3000.000000
        33        101     1         1.021566    3000.000000
        33        102     1         0.969440    3000.000000
        33        103     1         1.017697    3000.000000
        34         35     1         0.354545    3000.000000
        34         36     1         0.703828    3000.000000
        34         37     1         1.038986    3000.000000
        34         51     1         1.098404    3000.000000
        34         52     1         0.826246    3000.000000
        34         53     1         0.593792    3000.000000
        34         54     1         0.368850    3000.000000
        34         55     1         0.375172    3000.000000
        34         56     1         0.601552    3000.000000
        34         57     1         0.882591    3000.000000
        34         76     1         0.914197    3000.000000
        34         77     1         0.727908    3000.000000
        34         78     1         0.662143    3000.000000
        34         79     1         0.751161    3000.000000
        34         80     1         0.946516    3000.000000
        34        102     1         1.066890    3000.000000
        34        103     1         0.992734    3000.000000
        34        104     1         1.017852    3000.000000
        35         36     1         0.356154    3000.000000
        35         37     1         0.705389    3000.000000
        35         38     1         1.016953    3000.000000
        35         53     1         0.920020    3000.000000
        35         54     1         0.634459    3000.000000
        35         55     1         0.402862    3000.000000
        35         56     1         0.371307    3000.000000
        35         57     1         0.570286    3000.000000
        35         58     1         0.840235    3000.000000
        35         59     1         1.091810    3000.000000
        35         77     1         0.965226    3000.000000
        35         78     1         0.770427    3000.000000
        35         79     1         0.680797    3000.000000
        35         80     1         0.739517    3000.000000
        35         81     1         0.912926    3000.000000
        35        104     1         1.018578    3000.000000
        35        105     1         1.016312    3000.000000
        36         37     1         0.356620    3000.000000
        36         38     1         0.690893    3000.000000
        36         39     1         1.012564    3000.000000
        36         54     1         0.960747    3000.000000
        36         55     1         0.675923    3000.000000
        36         56     1         0.434450    3000.000000
        36         57     1         0.362182    3000.000000
        36         58     1         0.528849    3000.000000
        36         59     1         0.756769    3000.000000
        36         60     1         1.026714    3000.000000
        36         78     1         1.010910    3000.000000
        36         79     1         0.804053    3000.000000
        36         80     1         0.688699    3000.000000
        36         81     1         0.714741    3000.000000
        36         82     1         0.859090    3000.000000
        36         83     1         1.043189    3000.000000
        36        105     1         1.028879    3000.000000
        36        106     1         1.000973    3000.000000
        36        107     1         1.067307    3000.000000
        37         38     1         0.354329    3000.000000
        37         39     1         0.700669    3000.000000
        37         40     1         1.037592    3000.000000
        37         55     1         1.002552    3000.000000
        37         56     1         0.718254    3000.000000
        37         57     1         0.467249    3000.000000
        37         58     1         0.348277    3000.000000
        37         59     1         0.432940    3000.000000
        37         60     1         0.685655    3000.000000
        37         61     1         0.989870    3000.000000
        37         79     1         1.051956    3000.000000
        37         80     1         0.832359    3000.000000
        37         81     1         0.689353    3000.000000
        37         82     1         0.673372    3000.000000
        37         83     1         0.763145    3000.000000
        37         84     1         0.943750    3000.000000
        37        106     1         1.030546    3000.000000
        37        107     1         0.972833    3000.000000
        37        108     1         0.999450    3000.000000
        38         39     1         0.354502    3000.000000
        38         40     1         0.705644    3000.000000
        38         41     1         1.028491    3000.000000
        38         56     1         1.055399    3000.000000
        38         57     1         0.791212    3000.000000
        38         58     1         0.554099    3000.000000
        38         59     1         0.354562    3000.000000
        38         60     1         0.399467    3000.000000
        38         61     1         0.661021    3000.000000
        38         62     1         0.970299    3000.000000
        38         81     1         0.917081    3000.000000
        38         82     1         0.760926    3000.000000
        38         83     1         0.679924    3000.000000
        38         84     1         0.730269    3000.000000
        38         85     1         0.898036    3000.000000
        38        108     1         1.005764    3000.000000
        38        109     1         0.991963    3000.000000
        38        110     1         1.083934    3000.000000
        39         40     1         0.357578    3000.000000
        39         41     1         0.695762    3000.000000
        39         42     1         1.016761    3000.000000
        39         58     1         0.873227    3000.000000
        39         59     1         0.591096    3000.000000
        39         60     1         0.360225    3000.000000
        39         61     1         0.387785    3000.000000
        39         62     1         0.644299    3000.000000
        39         63     1         0.937188    3000.000000
        39         82     1         0.999452    3000.000000
        39         83     1         0.805084    3000.000000
        39         84     1         0.689453    3000.000000
        39         85     1         0.712792    3000.000000
        39         86     1         0.856421    3000.000000
        39         87     1         1.061075    3000.000000
        39        109     1         1.025956    3000.000000
        39        110     1         0.994757    3000.000000
        39        111     1         1.072218    3000.000000
        40         41     1         0.348558    3000.000000
        40         42     1         0.689105    3000.000000
        40         43     1         1.016719    3000.000000
        40         59     1         0.911610    3000.000000
        40         60     1         0.609497    3000.000000
        40         61     1         0.362134    3000.000000
        40         62     1         0.364904    3000.000000
        40         63     1         0.603625    3000.000000
        40         64     1         0.883440    3000.000000
        40         83     1         1.048387    3000.000000
        40         84     1         0.832702    3000.000000
        40         85     1         0.693430    3000.000000
        40         86     1         0.681109    3000.000000
        40         87     1         0.793734    3000.000000
        40         88     1         0.986286    3000.000000
        40        110     1         1.033641    3000.000000
        40        111     1         0.987229    3000.000000
        40        112     1         1.034705    3000.000000
        41         42     1         0.349750    3000.000000
        41         43     1         0.695588    3000.000000
        41         44     1         1.033350    3000.000000
        41         60     1         0.934556    3000.000000
        41         61     1         0.633765    3000.000000
        41         62     1         0.384299    3000.000000
        41         63     1         0.359397    3000.000000
        41         64     1         0.566075    3000.000000
        41         65     1         0.831313    3000.000000
        41         84     1         1.099682    3000.000000
        41         85     1         0.882207    3000.000000
        41         86     1         0.725560    3000.000000
        41         87     1         0.673274    3000.000000
        41         88     1         0.751711    3000.000000
        41         89     1         0.927787    3000.000000
        41        111     1         1.070302    3000.000000
        41        112     1         0.997243    3000.000000
        41        113     1         1.012588    3000.000000
        42         43     1         0.354996    3000.000000
        42         44     1         0.710898    3000.000000
        42         45     1         1.044864    3000.000000
        42         61     1         0.962648    3000.000000
        42         62     1         0.666031    3000.000000
        42         63     1         0.422943    3000.000000
        42         64     1         0.356407    3000.000000
        42         65     1         0.521304    3000.000000
        42         66     1         0.775202    3000.000000
        42         67     1         1.057050    3000.000000
        42         86     1         0.946519    3000.000000
        42         87     1         0.768627    3000.000000
        42         88     1         0.677911    3000.000000
        42         89     1         0.718181    3000.000000
        42         90     1         0.871980    3000.000000
        42         91     1         1.097110    3000.000000
        42        113     1         1.013176    3000.000000
        42        114     1         0.996903    3000.000000
        42        115     1         1.068400    3000.000000
        43         44     1         0.365018    3000.000000
        43         45     1         0.713835    3000.000000
        43         46     1         1.039553    3000.000000
        43         62     1         0.999948    3000.000000
        43         63     1         0.718045    3000.000000
        43         64     1         0.474171    3000.000000
        43         65     1         0.355170    3000.000000
        43         66     1         0.471875    3000.000000
        43         67     1         0.727338    3000.000000
        43         68     1         1.010297    3000.000000
        43         87     1         1.017855    3000.000000
        43         88     1         0.820003    3000.000000
        43         89     1         0.692599    3000.000000
        43         90     1         0.689760    3000.000000
        43         91     1         0.828457    3000.000000
        43         92     1         1.049490    3000.000000
        43        114     1         1.036215    3000.000000
        43        115     1         0.984693    3000.000000
        43        116     1         1.024922    3000.000000
        44         45     1         0.355580    3000.000000
        44         46     1         0.695235    3000.000000
        44         47     1         1.012687    3000.000000
        44         63     1         1.059785    3000.000000
        44         64     1         0.787082    3000.000000
        44         65     1         0.530545    3000.000000
        44         66     1         0.358064    3000.000000
        44         67     1         0.435113    3000.000000
        44         68     1         0.675055    3000.000000
        44         69     1         0.964814    3000.000000
        44         88     1         1.093681    3000.000000
        44         89     1         0.876050    3000.000000
        44         90     1         0.712498    3000.000000
        44         91     1         0.676866    3000.000000
        44         92     1         0.793366    3000.000000
        44         93     1         0.992227    3000.000000
        44        115     1         1.061142    3000.000000
        44        116     1         0.974898    3000.000000
        44        117     1         1.018787    3000.000000
        45         46     1         0.347104    3000.000000
        45         47     1         0.681436    3000.000000
        45         48     1         1.003858    3000.000000
        45         65     1         0.835204    3000.000000
        45         66     1         0.558520    3000.000000
        45         67     1         0.358873    3000.000000
        45         68     1         0.391747    3000.000000
        45         69     1         0.633450    3000.000000
        45         70     1         0.927748    3000.000000
        45         90     1         0.902449    3000.000000
        45         91     1         0.717372    3000.000000
        45         92     1         0.659001    3000.000000
        45         93     1         0.742319    3000.000000
        45         94     1         0.942197    3000.000000
        45        116     1         1.059394    3000.000000
        45        117     1         0.980486    3000.000000
        45        118     1         0.989198    3000.000000
        45        119     1         1.080871    3000.000000
        46         47     1         0.344154    3000.000000
        46         48     1         0.685187    3000.000000
        46         49     1         1.024322    3000.000000
        46         66     1         0.866804    3000.000000
        46         67     1         0.585985    3000.000000
        46         68     1         0.357316    3000.000000
        46         69     1         0.361240    3000.000000
        46         70     1         0.603306    3000.000000
        46         71     1         0.893516    3000.000000
        46         91     1         0.923893    3000.000000
        46         92     1         0.729866    3000.000000
        46         93     1         0.635756    3000.000000
        46         94     1         0.710018    3000.000000
        46         95     1         0.898981    3000.000000
        46        117     1         1.084254    3000.000000
        46        118     1         0.975789    3000.000000
        46        119     1         0.950637    3000.000000
        46        120     1         1.056561    3000.000000
        47         48     1         0.349870    3000.000000
        47         49     1         0.703122    3000.000000
        47         50     1         1.060631    3000.000000
        47         67     1         0.904005    3000.000000
        47         68     1         0.618347    3000.000000
        47         69     1         0.375548    3000.000000
        47         70     1         0.357007    3000.000000
        47         71     1         0.578835    3000.000000
        47         72     1         0.872796    3000.000000
        47         92     1         0.966245    3000.000000
        47         93     1         0.756438    3000.000000
        47         94     1         0.654708    3000.000000
        47         95     1         0.705185    3000.000000
        47         96     1         0.867699    3000.000000
        47         97     1         1.097093    3000.000000
        47        119     1         0.984224    3000.000000
        47        120     1         0.971409    3000.000000
        47        121     1         1.049415    3000.000000
        48         49     1         0.359452    3000.000000
        48         50     1         0.730483    3000.000000
        48         51     1         1.057716    3000.000000
        48         68     1         0.946458    3000.000000
        48         69     1         0.656470    3000.000000
        48         70     1         0.412365    3000.000000
        48         71     1         0.359526    3000.000000
        48         72     1         0.567445    3000.000000
        48         73     1         0.853701    3000.000000
        48         93     1         1.017850    3000.000000
        48         94     1         0.813736    3000.000000
        48         95     1         0.699785    3000.000000
        48         96     1         0.710534    3000.000000
        48         97     1         0.854271    3000.000000
        48         98     1         1.075058    3000.000000
        48        120     1         1.044307    3000.000000
        48        121     1         1.002840    3000.000000
        48        122     1         1.051683    3000.000000
        49         50     1         0.378383    3000.000000
        49         51     1         0.723713    3000.000000
        49         52     1         1.054124    3000.000000
        49         69     1         0.986637    3000.000000
        49         70     1         0.692475    3000.000000
        49         71     1         0.432519    3000.000000
        49         72     1         0.355030    3000.000000
        49         73     1         0.541570    3000.000000
        49         74     1         0.796423    3000.000000
        49         75     1         1.087972    3000.000000
        49         94     1         1.074509    3000.000000
        49         95     1         0.865742    3000.000000
        49         96     1         0.719293    3000.000000
        49         97     1         0.703319    3000.000000
        49         98     1         0.828525    3000.000000
        49         99     1         1.011534    3000.000000
        49        121     1         1.077835    3000.000000
        49        122     1         1.006555    3000.000000
        49        123     1         1.040937    3000.000000
        50         51     1         0.359228    3000.000000
        50         52     1         0.706193    3000.000000
        50         53     1         1.039848    3000.000000
        50         70     1         1.037709    3000.000000
        50         71     1         0.737469    3000.000000
        50         72     1         0.470410    3000.000000
        50         73     1         0.351323    3000.000000
        50         74     1         0.461871    3000.000000
        50         75     1         0.732941    3000.000000
        50         76     1         1.040625    3000.000000
        50         96     1         0.913333    3000.000000
        50         97     1         0.743788    3000.000000
        50         98     1         0.695105    3000.000000
        50         99     1         0.755215    3000.000000
        50        100     1         0.937979    3000.000000
        50        123     1         1.008841    3000.000000
        50        124     1         1.012202    3000.000000
        51         52     1         0.352863    3000.000000
        51         53     1         0.697787    3000.000000
        51         54     1         1.014482    3000.000000
        51         71     1         1.076230    3000.000000
        51         72     1         0.790717    3000.000000
        51         73     1         0.540460    3000.000000
        51         74     1         0.358650    3000.000000
        51         75     1         0.450942    3000.000000
        51         76     1         0.719501    3000.000000
        51         77     1         1.005207    3000.000000
        51         97     1         0.985485    3000.000000
        51         98     1         0.815697    3000.000000
        51         99     1         0.709068    3000.000000
        51        100     1         0.752229    3000.000000
        51        101     1         0.919332    3000.000000
        51        124     1         1.052110    3000.000000
        51        125     1         1.022645    3000.000000
        52         53     1         0.350351    3000.000000
        52         54     1         0.683395    3000.000000
        52         55     1         1.010252    3000.000000
        52         73     1         0.840296    3000.000000
        52         74     1         0.551882    3000.000000
        52         75     1         0.359862    3000.000000
        52         76     1         0.442405    3000.000000
        52         77     1         0.678935    3000.000000
        52         78     1         0.972262    3000.000000
        52         98     1         1.041377    3000.000000
        52         99     1         0.829305    3000.000000
        52        100     1         0.710307    3000.000000
        52        101     1         0.735915    3000.000000
        52        102     1         0.858844    3000.000000
        52        103     1         1.070412    3000.000000
        52        125     1         1.052438    3000.000000
        52        126     1         1.013716    3000.000000
        52        127     1         1.069914    3000.000000
        53         54     1         0.350798    3000.000000
        53         55     1         0.695199    3000.000000
        53         56     1         1.026418    3000.000000
        53         74     1         0.847442    3000.000000
        53         75     1         0.552957    3000.000000
        53         76     1         0.348106    3000.000000
        53         77     1         0.375738    3000.000000
        53         78     1         0.638205    3000.000000
        53         79     1         0.948286    3000.000000
        53         99     1         1.047856    3000.000000
        53        100     1         0.825514    3000.000000
        53        101     1         0.689267    3000.000000
        53        102     1         0.658340    3000.000000
        53        103     1         0.787534    3000.000000
        53        104     1         1.014564    3000.000000
        53        126     1         1.027507    3000.000000
        53        127     1         0.961801    3000.000000
        53        128     1         1.003576    3000.000000
        54         55     1         0.350180    3000.000000
        54         56     1         0.692642    3000.000000
        54         57     1         1.020767    3000.000000
        54         75     1         0.882774    3000.000000
        54         76     1         0.608297    3000.000000
        54         77     1         0.365650    3000.000000
        54         78     1         0.383638    3000.000000
        54         79     1         0.635941    3000.000000
        54         80     1         0.940679    3000.000000
        54        101     1         0.892232    3000.000000
        54        102     1         0.715824    3000.000000
        54        103     1         0.671739    3000.000000
        54        104     1         0.788942    3000.000000
        54        105     1         1.005466    3000.000000
        54        127     1         1.065703    3000.000000
        54        128     1         0.984808    3000.000000
        54        129     1         1.020078    3000.000000
        55         56     1         0.348050    3000.000000
        55         57     1         0.687203    3000.000000
        55         58     1         1.014596    3000.000000
        55         76     1         0.924639    3000.000000
        55         77     1         0.615787    3000.000000
        55         78     1         0.374534    3000.000000
        55         79     1         0.382864    3000.000000
        55         80     1         0.627556    3000.000000
        55         81     1         0.928634    3000.000000
        55        102     1         0.914729    3000.000000
        55        103     1         0.729883    3000.000000
        55        104     1         0.675002    3000.000000
        55        105     1         0.778694    3000.000000
        55        106     1         0.989322    3000.000000
        55        128     1         1.079341    3000.000000
        55        129     1         0.994988    3000.000000
        55        130     1         1.021389    3000.000000
        56         57     1         0.344701    3000.000000
        56         58     1         0.683449    3000.000000
        56         59     1         1.004362    3000.000000
        56         77     1         0.927515    3000.000000
        56         78     1         0.621690    3000.000000
        56         79     1         0.378320    3000.000000
        56         80     1         0.377391    3000.000000
        56         81     1         0.616283    3000.000000
        56         82     1         0.910109    3000.000000
        56        103     1         0.927967    3000.000000
        56        104     1         0.736583    3000.000000
        56        105     1         0.668477    3000.000000
        56        106     1         0.763134    3000.000000
        56        107     1         0.968160    3000.000000
        56        129     1         1.084738    3000.000000
        56        130     1         0.994137    3000.000000
        56        131     1         1.011655    3000.000000
        57         58     1         0.344611    3000.000000
        57         59     1         0.681724    3000.000000
        57         60     1         1.017352    3000.000000
        57         78     1         0.929488    3000.000000
        57         79     1         0.623542    3000.000000
        57         80     1         0.377109    3000.000000
        57         81     1         0.367334    3000.000000
        57         82     1         0.597632    3000.000000
        57         83     1         0.871273    3000.000000
        57        104     1         0.934000    3000.000000
        57        105     1         0.733608    3000.000000
        57        106     1         0.655468    3000.000000
        57        107     1         0.740949    3000.000000
        57        108     1         0.933241    3000.000000
        57        130     1         1.080679    3000.000000
        57        131     1         0.983254    3000.000000
        57        132     1         0.992215    3000.000000
        57        133     1         1.096279    3000.000000
        58         59     1         0.349849    3000.000000
        58         60     1         0.702577    3000.000000
        58         61     1         1.051290    3000.000000
        58         79     1         0.932565    3000.000000
        58         80     1         0.627119    3000.000000
        58         81     1         0.376102    3000.000000
        58         82     1         0.348375    3000.000000
        58         83     1         0.552113    3000.000000
        58         84     1         0.833809    3000.000000
        58        105     1         0.937503    3000.000000
        58        106     1         0.729928    3000.000000
        58        107     1         0.638133    3000.000000
        58        108     1         0.701462    3000.000000
        58        109     1         0.886995    3000.000000
        58        131     1         1.074280    3000.000000
        58        132     1         0.967977    3000.000000
        58        133     1         0.959338    3000.000000
        58        134     1         1.046530    3000.000000
        59         60     1         0.359207    3000.000000
        59         61     1         0.720140    3000.000000
        59         62     1         1.073485    3000.000000
        59         80     1         0.957158    3000.000000
        59         81     1         0.666382    3000.000000
        59         82     1         0.428713    3000.000000
        59         83     1         0.353727    3000.000000
        59         84     1         0.533937    3000.000000
        59         85     1         0.814656    3000.000000
        59        106     1         0.984833    3000.000000
        59        107     1         0.781111    3000.000000
        59        108     1         0.667689    3000.000000
        59        109     1         0.703120    3000.000000
        59        110     1         0.886109    3000.000000
        59        133     1         1.003699    3000.000000
        59        134     1         0.970193    3000.000000
        59        135     1         1.045953    3000.000000
        60         61     1         0.367016    3000.000000
        60         62     1         0.733005    3000.000000
        60         63     1         1.072782    3000.000000
        60         81     1         1.000181    3000.000000
        60         82     1         0.719047    3000.000000
        60         83     1         0.464092    3000.000000
        60         84     1         0.357708    3000.000000
        60         85     1         0.517862    3000.000000
        60         86     1         0.787876    3000.000000
        60         87     1         1.076679    3000.000000
        60        107     1         1.040376    3000.000000
        60        108     1         0.822773    3000.000000
        60        109     1         0.685800    3000.000000
        60        110     1         0.711721    3000.000000
        60        111     1         0.886538    3000.000000
        60        134     1         1.026591    3000.000000
        60        135     1         0.978731    3000.000000
        60        136     1         1.071140    3000.000000
        61         62     1         0.372776    3000.000000
        61         63     1         0.726092    3000.000000
        61         64     1         1.053771    3000.000000
        61         82     1         1.049761    3000.000000
        61         83     1         0.757442    3000.000000
        61         84     1         0.489773    3000.000000
        61         85     1         0.356741    3000.000000
        61         86     1         0.486008    3000.000000
        61         87     1         0.743763    3000.000000
        61         88     1         1.031893    3000.000000
        61        108     1         1.077262    3000.000000
        61        109     1         0.841348    3000.000000
        61        110     1         0.694301    3000.000000
        61        111     1         0.709601    3000.000000
        61        112     1         0.862626    3000.000000
        61        113     1         1.088128    3000.000000
        61        135     1         1.029813    3000.000000
        61        136     1         0.995003    3000.000000
        61        137     1         1.074866    3000.000000
        62         63     1         0.360583    3000.000000
        62         64     1         0.702183    3000.000000
        62         65     1         1.024654    3000.000000
        62         83     1         1.093292    3000.000000
        62         84     1         0.797400    3000.000000
        62         85     1         0.524315    3000.000000
        62         86     1         0.358003    3000.000000
        62         87     1         0.442314    3000.000000
        62         88     1         0.690862    3000.000000
        62         89     1         0.981334    3000.000000
        62        110     1         0.862695    3000.000000
        62        111     1         0.709009    3000.000000
        62        112     1         0.693441    3000.000000
        62        113     1         0.821318    3000.000000
        62        114     1         1.036221    3000.000000
        62        136     1         1.049811    3000.000000
        62        137     1         1.000737    3000.000000
        62        138     1         1.060382    3000.000000
        63         64     1         0.348432    3000.000000
        63         65     1         0.684552    3000.000000
        63         66     1         1.007275    3000.000000
        63         85     1         0.831963    3000.000000
        63         86     1         0.555818    3000.000000
        63         87     1         0.359024    3000.000000
        63         88     1         0.406126    3000.000000
        63         89     1         0.649822    3000.000000
        63         90     1         0.943046    3000.000000
        63        111     1         0.888028    3000.000000
        63        112     1         0.716955    3000.000000
        63        113     1         0.673279    3000.000000
        63        114     1         0.782098    3000.000000
        63        115     1         0.988589    3000.000000
        63        137     1         1.063276    3000.000000
        63        138     1         0.996933    3000.000000
        63        139     1         1.038684    3000.000000
        64         65     1         0.342955    3000.000000
        64         66     1         0.678868    3000.000000
        64         67     1         1.006593    3000.000000
        64         86     1         0.861177    3000.000000
        64         87     1         0.578703    3000.000000
        64         88     1         0.360140    3000.000000
        64         89     1         0.381437    3000.000000
        64         90     1         0.622528    3000.000000
        64         91     1         0.925737    3000.000000
        64        112     1         0.906623    3000.000000
        64        113     1         0.720212    3000.000000
        64        114     1         0.656364    3000.000000
        64        115     1         0.748897    3000.000000
        64        116     1         0.948797    3000.000000
        64        138     1         1.068417    3000.000000
        64        139     1         0.987424    3000.000000
        64        140     1         1.016546    3000.000000
        65         66     1         0.342310    3000.000000
        65         67     1         0.681232    3000.000000
        65         68     1         1.012204    3000.000000
        65         87     1         0.885926    3000.000000
        65         88     1         0.597338    3000.000000
        65         89     1         0.364168    3000.000000
        65         90     1         0.365922    3000.000000
        65         91     1         0.613603    3000.000000
        65         92     1         0.919071    3000.000000
        65        113     1         0.923283    3000.000000
        65        114     1         0.726296    3000.000000
        65        115     1         0.643588    3000.000000
        65        116     1         0.722079    3000.000000
        65        117     1         0.943988    3000.000000
        65        139     1         1.069902    3000.000000
        65        140     1         0.976739    3000.000000
        65        141     1         1.000708    3000.000000
        66         67     1         0.344129    3000.000000
        66         68     1         0.686039    3000.000000
        66         69     1         1.027123    3000.000000
        66         88     1         0.907697    3000.000000
        66         89     1         0.613265    3000.000000
        66         90     1         0.369447    3000.000000
        66         91     1         0.368686    3000.000000
        66         92     1         0.614683    3000.000000
        66         93     1         0.912593    3000.000000
        66        114     1         0.941058    3000.000000
        66        115     1         0.732583    3000.000000
        66        116     1         0.634957    3000.000000
        66        117     1         0.735735    3000.000000
        66        118     1         0.940305    3000.000000
        66        140     1         1.067590    3000.000000
        66        141     1         0.967145    3000.000000
        66        142     1         1.037437    3000.000000
        67         68     1         0.347810    3000.000000
        67         69     1         0.700789    3000.000000
        67         70     1         1.043481    3000.000000
        67         89     1         0.920267    3000.000000
        67         90     1         0.616440    3000.000000
        67         91     1         0.367500    3000.000000
        67         92     1         0.366931    3000.000000
        67         93     1         0.602466    3000.000000
        67         94     1         0.906621    3000.000000
        67        115     1         0.943106    3000.000000
        67        116     1         0.722278    3000.000000
        67        117     1         0.647494    3000.000000
        67        118     1         0.727733    3000.000000
        67        119     1         0.917735    3000.000000
        67        141     1         1.042753    3000.000000
        67        142     1         0.991341    3000.000000
        67        143     1         1.041011    3000.000000
        68         69     1         0.358955    3000.000000
        68         70     1         0.713855    3000.000000
        68         71     1         1.050288    3000.000000
        68         90     1         0.929835    3000.000000
        68         91     1         0.623651    3000.000000
        68         92     1         0.379349    3000.000000
        68         93     1         0.357118    3000.000000
        68         94     1         0.596334    3000.000000
        68         95     1         0.893933    3000.000000
        68        116     1         0.945286    3000.000000
        68        117     1         0.745714    3000.000000
        68        118     1         0.651223    3000.000000
        68        119     1         0.707755    3000.000000
        68        120     1         0.916346    3000.000000
        68        142     1         1.066012    3000.000000
        68        143     1         0.995190    3000.000000
        68        144     1         1.022529    3000.000000
        69         70     1         0.361400    3000.000000
        69         71     1         0.710812    3000.000000
        69         72     1         1.046906    3000.000000
        69         91     1         0.948321    3000.000000
        69         92     1         0.647411    3000.000000
        69         93     1         0.388919    3000.000000
        69         94     1         0.355070    3000.000000
        69         95     1         0.577984    3000.000000
        69         96     1         0.865811    3000.000000
        69        117     1         0.978320    3000.000000
        69        118     1         0.764415    3000.000000
        69        119     1         0.641801    3000.000000
        69        120     1         0.712581    3000.000000
        69        121     1         0.901876    3000.000000
        69        143     1         1.071625    3000.000000
        69        144     1         0.975411    3000.000000
        69        145     1         1.040754    3000.000000
        70         71     1         0.356183    3000.000000
        70         72     1         0.704326    3000.000000
        70         73     1         1.038478    3000.000000
        70         92     1         0.974295    3000.000000
        70         93     1         0.668672    3000.000000
        70         94     1         0.411637    3000.000000
        70         95     1         0.355238    3000.000000
        70         96     1         0.551415    3000.000000
        70         97     1         0.838879    3000.000000
        70        118     1         1.005188    3000.000000
        70        119     1         0.773740    3000.000000
        70        120     1         0.666751    3000.000000
        70        121     1         0.709271    3000.000000
        70        122     1         0.880060    3000.000000
        70        144     1         1.057718    3000.000000
        70        145     1         0.998600    3000.000000
        70        146     1         1.047594    3000.000000
        71         72     1         0.353815    3000.000000
        71         73     1         0.698937    3000.000000
        71         74     1         1.029644    3000.000000
        71         93     1         0.994491    3000.000000
        71         94     1         0.695397    3000.000000
        71         95     1         0.443919    3000.000000
        71         96     1         0.357934    3000.000000
        71         97     1         0.539907    3000.000000
        71         98     1         0.824651    3000.000000
        71        119     1         1.024844    3000.000000
        71        120     1         0.814232    3000.000000
        71        121     1         0.689082    3000.000000
        71        122     1         0.708848    3000.000000
        71        123     1         0.876923    3000.000000
        71        145     1         1.087784    3000.000000
        71        146     1         1.015932    3000.000000
        71        147     1         1.047653    3000.000000
        72         73     1         0.350528    3000.000000
        72         74     1         0.694241    3000.000000
        72         75     1         1.030925    3000.000000
        72         94     1         1.012821    3000.000000
        72         95     1         0.718761    3000.000000
        72         96     1         0.454880    3000.000000
        72         97     1         0.353984    3000.000000
        72         98     1         0.527470    3000.000000
        72         99     1         0.791684    3000.000000
        72        100     1         1.090881    3000.000000
        72        120     1         1.053048    3000.000000
        72        121     1         0.829627    3000.000000
        72        122     1         0.686980    3000.000000
        72        123     1         0.703127    3000.000000
        72        124     1         0.864170    3000.000000
        72        125     1         1.096708    3000.000000
        72        146     1         1.087802    3000.000000
        72        147     1         0.998582    3000.000000
        72        148     1         1.040600    3000.000000
        73         74     1         0.352977    3000.000000
        73         75     1         0.701899    3000.000000
        73         76     1         1.044102    3000.000000
        73         95     1         1.029849    3000.000000
        73         96     1         0.728990    3000.000000
        73         97     1         0.460531    3000.000000
        73         98     1         0.349347    3000.000000
        73         99     1         0.487386    3000.000000
        73        100     1         0.767709    3000.000000
        73        101     1         1.073623    3000.000000
        73        121     1         1.062101    3000.000000
        73        122     1         0.826565    3000.000000
        73        123     1         0.679904    3000.000000
        73        124     1         0.685120    3000.000000
        73        125     1         0.834877    3000.000000
        73        126     1         1.078289    3000.000000
        73        147     1         1.057273    3000.000000
        73        148     1         0.975410    3000.000000
        73        149     1         1.022534    3000.000000
        74         75     1         0.354397    3000.000000
        74         76     1         0.707521    3000.000000
        74         77     1         1.053298    3000.000000
        74         96     1         1.056013    3000.000000
        74         97     1         0.763326    3000.000000
        74         98     1         0.507963    3000.000000
        74         99     1         0.357385    3000.000000
        74        100     1         0.489541    3000.000000
        74        101     1         0.764247    3000.000000
        74        102     1         1.054490    3000.000000
        74        122     1         1.092641    3000.000000
        74        123     1         0.864058    3000.000000
        74        124     1         0.712277    3000.000000
        74        125     1         0.697362    3000.000000
        74        126     1         0.846776    3000.000000
        74        127     1         1.079302    3000.000000
        74        148     1         1.071898    3000.000000
        74        149     1         0.995239    3000.000000
        74        150     1         1.041156    3000.000000
        75         76     1         0.358613    3000.000000
        75         77     1         0.717450    3000.000000
        75         78     1         1.060984    3000.000000
        75         97     1         1.083039    3000.000000
        75         98     1         0.795842    3000.000000
        75         99     1         0.514281    3000.000000
        75        100     1         0.358621    3000.000000
        75        101     1         0.481799    3000.000000
        75        102     1         0.734418    3000.000000
        75        103     1         1.033938    3000.000000
        75        124     1         0.879061    3000.000000
        75        125     1         0.709477    3000.000000
        75        126     1         0.695697    3000.000000
        75        127     1         0.833015    3000.000000
        75        128     1         1.060069    3000.000000
        75        149     1         1.065952    3000.000000
        75        150     1         0.991297    3000.000000
        75        151     1         1.037858    3000.000000
        76         77     1         0.368805    3000.000000
        76         78     1         0.726160    3000.000000
        76         79     1         1.069567    3000.000000
        76         99     1         0.804218    3000.000000
        76        100     1         0.518218    3000.000000
        76        101     1         0.349166    3000.000000
        76        102     1         0.431311    3000.000000
        76        103     1         0.701364    3000.000000
        76        104     1         1.012121    3000.000000
        76        125     1         0.868151    3000.000000
        76        126     1         0.694634    3000.000000
        76        127     1         0.662037    3000.000000
        76        128     1         0.794582    3000.000000
        76        129     1         1.031140    3000.000000
        76        150     1         1.042650    3000.000000
        76        151     1         0.967087    3000.000000
        76        152     1         1.000715    3000.000000
        77         78     1         0.363365    3000.000000
        77         79     1         0.718744    3000.000000
        77         80     1         1.060487    3000.000000
        77        100     1         0.843986    3000.000000
        77        101     1         0.567857    3000.000000
        77        102     1         0.357021    3000.000000
        77        103     1         0.419763    3000.000000
        77        104     1         0.685669    3000.000000
        77        105     1         0.994115    3000.000000
        77        126     1         0.904031    3000.000000
        77        127     1         0.717029    3000.000000
        77        128     1         0.667711    3000.000000
        77        129     1         0.794342    3000.000000
        77        130     1         1.023737    3000.000000
        77        151     1         1.067442    3000.000000
        77        152     1         0.976734    3000.000000
        77        153     1         1.016450    3000.000000
        78         79     1         0.361393    3000.000000
        78         80     1         0.714884    3000.000000
        78         81     1         1.055853    3000.000000
        78        101     1         0.881511    3000.000000
        78        102     1         0.582568    3000.000000
        78        103     1         0.362592    3000.000000
        78        104     1         0.413715    3000.000000
        78        105     1         0.673734    3000.000000
        78        106     1         0.981970    3000.000000
        78        127     1         0.918931    3000.000000
        78        128     1         0.723310    3000.000000
        78        129     1         0.673149    3000.000000
        78        130     1         0.793385    3000.000000
        78        131     1         1.016337    3000.000000
        78        152     1         1.069769    3000.000000
        78        153     1         0.987486    3000.000000
        78        154     1         1.038696    3000.000000
        79         80     1         0.359324    3000.000000
        79         81     1         0.711659    3000.000000
        79         82     1         1.049048    3000.000000
        79        102     1         0.893875    3000.000000
        79        103     1         0.591069    3000.000000
        79        104     1         0.365515    3000.000000
        79        105     1         0.404413    3000.000000
        79        106     1         0.662176    3000.000000
        79        107     1         0.970240    3000.000000
        79        128     1         0.919615    3000.000000
        79        129     1         0.725565    3000.000000
        79        130     1         0.672064    3000.000000
        79        131     1         0.786038    3000.000000
        79        132     1         1.004871    3000.000000
        79        153     1         1.068386    3000.000000
        79        154     1         0.996944    3000.000000
        79        155     1         1.060322    3000.000000
        80         81     1         0.357951    3000.000000
        80         82     1         0.706718    3000.000000
        80         83     1         1.033941    3000.000000
        80        103     1         0.900770    3000.000000
        80        104     1         0.596318    3000.000000
        80        105     1         0.363469    3000.000000
        80        106     1         0.394052    3000.000000
        80        107     1         0.650128    3000.000000
        80        108     1         0.954325    3000.000000
        80        129     1         0.917643    3000.000000
        80        130     1         0.722742    3000.000000
        80        131     1         0.664670    3000.000000
        80        132     1         0.773264    3000.000000
        80        133     1         0.985330    3000.000000
        80        154     1         1.063134    3000.000000
        80        155     1         1.000686    3000.000000
        80        156     1         1.075216    3000.000000
        81         82     1         0.354686    3000.000000
        81         83     1         0.694315    3000.000000
        81         84     1         1.021881    3000.000000
        81        104     1         0.906381    3000.000000
        81        105     1         0.599504    3000.000000
        81        106     1         0.360819    3000.000000
        81        107     1         0.381771    3000.000000
        81        108     1         0.630749    3000.000000
        81        109     1         0.933771    3000.000000
        81        130     1         0.914790    3000.000000
        81        131     1         0.717838    3000.000000
        81        132     1         0.653096    3000.000000
        81        133     1         0.750308    3000.000000
        81        134     1         0.953707    3000.000000
        81        155     1         1.050010    3000.000000
        81        156     1         0.995019    3000.000000
        81        157     1         1.071060    3000.000000
        82         83     1         0.346733    3000.000000
        82         84     1         0.686103    3000.000000
        82         85     1         1.015515    3000.000000
        82        105     1         0.910923    3000.000000
        82        106     1         0.604194    3000.000000
        82        107     1         0.360062    3000.000000
        82        108     1         0.361295    3000.000000
        82        109     1         0.609318    3000.000000
        82        110     1         0.924544    3000.000000
        82        131     1         0.915653    3000.000000
        82        132     1         0.715820    3000.000000
        82        133     1         0.636107    3000.000000
        82        134     1         0.718107    3000.000000
        82        135     1         0.927229    3000.000000
        82        156     1         1.029700    3000.000000
        82        157     1         0.978731    3000.000000
        82        158     1         1.046094    3000.000000
        83         84     1         0.344607    3000.000000
        83         85     1         0.684092    3000.000000
        83         86     1         1.012147    3000.000000
        83        106     1         0.919540    3000.000000
        83        107     1         0.617625    3000.000000
        83        108     1         0.369115    3000.000000
        83        109     1         0.362035    3000.000000
        83        110     1         0.618409    3000.000000
        83        111     1         0.933491    3000.000000
        83        132     1         0.934044    3000.000000
        83        133     1         0.729970    3000.000000
        83        134     1         0.636142    3000.000000
        83        135     1         0.717904    3000.000000
        83        136     1         0.953428    3000.000000
        83        157     1         1.026716    3000.000000
        83        158     1         0.970135    3000.000000
        83        159     1         1.045200    3000.000000
        84         85     1         0.344485    3000.000000
        84         86     1         0.682450    3000.000000
        84         87     1         1.010939    3000.000000
        84        107     1         0.926674    3000.000000
        84        108     1         0.619810    3000.000000
        84        109     1         0.367131    3000.000000
        84        110     1         0.375137    3000.000000
        84        111     1         0.634118    3000.000000
        84        112     1         0.943129    3000.000000
        84        133     1         0.943819    3000.000000
        84        134     1         0.729836    3000.000000
        84        135     1         0.636107    3000.000000
        84        136     1         0.750409    3000.000000
        84        137     1         0.984825    3000.000000
        84        158     1         1.003659    3000.000000
        84        159     1         0.958414    3000.000000
        84        160     1         1.096340    3000.000000
        85         86     1         0.342993    3000.000000
        85         87     1         0.681598    3000.000000
        85         88     1         1.013345    3000.000000
        85        108     1         0.921593    3000.000000
        85        109     1         0.608430    3000.000000
        85        110     1         0.361284    3000.000000
        85        111     1         0.386448    3000.000000
        85        112     1         0.640309    3000.000000
        85        113     1         0.945329    3000.000000
        85        134     1         0.933574    3000.000000
        85        135     1         0.715661    3000.000000
        85        136     1         0.653096    3000.000000
        85        137     1         0.772995    3000.000000
        85        138     1         1.004960    3000.000000
        85        159     1         0.967089    3000.000000
        85        160     1         0.992292    3000.000000
        86         87     1         0.343785    3000.000000
        86         88     1         0.685956    3000.000000
        86         89     1         1.021526    3000.000000
        86        109     1         0.908645    3000.000000
        86        110     1         0.596169    3000.000000
        86        111     1         0.363056    3000.000000
        86        112     1         0.389229    3000.000000
        86        113     1         0.640277    3000.000000
        86        114     1         0.944535    3000.000000
        86        135     1         0.915785    3000.000000
        86        136     1         0.717831    3000.000000
        86        137     1         0.664651    3000.000000
        86        138     1         0.785912    3000.000000
        86        139     1         1.015938    3000.000000
        86        159     1         1.073773    3000.000000
        86        160     1         0.983404    3000.000000
        86        161     1         1.011634    3000.000000
        87         88     1         0.347454    3000.000000
        87         89     1         0.693838    3000.000000
        87         90     1         1.031825    3000.000000
        87        110     1         0.899528    3000.000000
        87        111     1         0.596843    3000.000000
        87        112     1         0.365112    3000.000000
        87        113     1         0.387915    3000.000000
        87        114     1         0.638181    3000.000000
        87        115     1         0.942206    3000.000000
        87        136     1         0.914701    3000.000000
        87        137     1         0.723171    3000.000000
        87        138     1         0.672031    3000.000000
        87        139     1         0.793112    3000.000000
        87        140     1         1.023791    3000.000000
        87        160     1         1.080779    3000.000000
        87        161     1         0.994135    3000.000000
        87        162     1         1.021154    3000.000000
        88         89     1         0.351993    3000.000000
        88         90     1         0.701129    3000.000000
        88         91     1         1.042405    3000.000000
        88        111     1         0.903344    3000.000000
        88        112     1         0.601421    3000.000000
        88        113     1         0.366036    3000.000000
        88        114     1         0.383483    3000.000000
        88        115     1         0.631786    3000.000000
        88        116     1         0.933396    3000.000000
        88        137     1         0.918022    3000.000000
        88        138     1         0.725505    3000.000000
        88        139     1         0.673168    3000.000000
        88        140     1         0.794557    3000.000000
        88        141     1         1.031402    3000.000000
        88        161     1         1.084622    3000.000000
        88        162     1         0.994957    3000.000000
        88        163     1         1.020143    3000.000000
        89         90     1         0.354797    3000.000000
        89         91     1         0.707086    3000.000000
        89         92     1         1.045417    3000.000000
        89        112     1         0.911827    3000.000000
        89        113     1         0.608435    3000.000000
        89        114     1         0.368022    3000.000000
        89        115     1         0.373981    3000.000000
        89        116     1         0.618189    3000.000000
        89        117     1         0.932527    3000.000000
        89        138     1         0.919673    3000.000000
        89        139     1         0.723417    3000.000000
        89        140     1         0.667672    3000.000000
        89        141     1         0.794534    3000.000000
        89        142     1         1.059044    3000.000000
        89        162     1         1.079500    3000.000000
        89        163     1         0.984826    3000.000000
        89        164     1         1.003642    3000.000000
        90         91     1         0.357846    3000.000000
        90         92     1         0.707158    3000.000000
        90         93     1         1.044722    3000.000000
        90        113     1         0.922835    3000.000000
        90        114     1         0.618121    3000.000000
        90        115     1         0.369249    3000.000000
        90        116     1         0.362139    3000.000000
        90        117     1         0.623132    3000.000000
        90        118     1         0.928330    3000.000000
        90        139     1         0.918972    3000.000000
        90        140     1         0.716907    3000.000000
        90        141     1         0.662017    3000.000000
        90        142     1         0.832386    3000.000000
        90        143     1         1.078995    3000.000000
        90        163     1         1.065727    3000.000000
        90        164     1         0.961682    3000.000000
        90        165     1         1.069958    3000.000000
        91         92     1         0.354928    3000.000000
        91         93     1         0.703464    3000.000000
        91         94     1         1.042037    3000.000000
        91        114     1         0.931439    3000.000000
        91        115     1         0.620388    3000.000000
        91        116     1         0.360740    3000.000000
        91        117     1         0.373257    3000.000000
        91        118     1         0.616794    3000.000000
        91        119     1         0.914652    3000.000000
        91        140     1         0.903863    3000.000000
        91        141     1         0.694555    3000.000000
        91        142     1         0.695567    3000.000000
        91        143     1         0.846749    3000.000000
        91        144     1         1.077819    3000.000000
        91        164     1         1.027193    3000.000000
        91        165     1         1.013756    3000.000000
        92         93     1         0.354120    3000.000000
        92         94     1         0.703325    3000.000000
        92         95     1         1.036234    3000.000000
        92        115     1         0.928757    3000.000000
        92        116     1         0.613206    3000.000000
        92        117     1         0.372667    3000.000000
        92        118     1         0.366700    3000.000000
        92        119     1         0.599687    3000.000000
        92        120     1         0.910329    3000.000000
        92        141     1         0.868054    3000.000000
        92        142     1         0.709791    3000.000000
        92        143     1         0.697348    3000.000000
        92        144     1         0.834349    3000.000000
        92        145     1         1.096530    3000.000000
        92        165     1         1.052275    3000.000000
        92        166     1         1.021679    3000.000000
        93         94     1         0.354583    3000.000000
        93         95     1         0.698011    3000.000000
        93         96     1         1.028899    3000.000000
        93        116     1         0.929018    3000.000000
        93        117     1         0.628936    3000.000000
        93        118     1         0.382709    3000.000000
        93        119     1         0.356154    3000.000000
        93        120     1         0.605506    3000.000000
        93        121     1         0.908950    3000.000000
        93        142     1         0.879658    3000.000000
        93        143     1         0.712332    3000.000000
        93        144     1         0.684913    3000.000000
        93        145     1         0.864053    3000.000000
        93        166     1         1.051051    3000.000000
        93        167     1         1.012161    3000.000000
        94         95     1         0.348788    3000.000000
        94         96     1         0.690387    3000.000000
        94         97     1         1.021748    3000.000000
        94        117     1         0.937659    3000.000000
        94        118     1         0.632434    3000.000000
        94        119     1         0.369523    3000.000000
        94        120     1         0.363483    3000.000000
        94        121     1         0.600349    3000.000000
        94        122     1         0.899032    3000.000000
        94        143     1         0.864457    3000.000000
        94        144     1         0.680315    3000.000000
        94        145     1         0.703080    3000.000000
        94        146     1         0.876696    3000.000000
        94        167     1         1.008996    3000.000000
        94        168     1         1.040872    3000.000000
        95         96     1         0.347040    3000.000000
        95         97     1         0.688584    3000.000000
        95         98     1         1.020321    3000.000000
        95        118     1         0.935931    3000.000000
        95        119     1         0.623094    3000.000000
        95        120     1         0.379348    3000.000000
        95        121     1         0.361804    3000.000000
        95        122     1         0.593206    3000.000000
        95        123     1         0.899250    3000.000000
        95        143     1         1.092919    3000.000000
        95        144     1         0.827315    3000.000000
        95        145     1         0.687124    3000.000000
        95        146     1         0.708853    3000.000000
        95        147     1         0.880135    3000.000000
        95        168     1         1.006478    3000.000000
        95        169     1         1.051704    3000.000000
        96         97     1         0.346510    3000.000000
        96         98     1         0.688227    3000.000000
        96         99     1         1.020005    3000.000000
        96        119     1         0.932129    3000.000000
        96        120     1         0.633323    3000.000000
        96        121     1         0.385924    3000.000000
        96        122     1         0.361572    3000.000000
        96        123     1         0.599956    3000.000000
        96        124     1         0.908278    3000.000000
        96        144     1         1.063264    3000.000000
        96        145     1         0.830086    3000.000000
        96        146     1         0.689271    3000.000000
        96        147     1         0.709122    3000.000000
        96        148     1         0.900856    3000.000000
        96        168     1         1.077799    3000.000000
        96        169     1         1.002894    3000.000000
        96        170     1         1.049248    3000.000000
        97         98     1         0.346800    3000.000000
        97         99     1         0.688864    3000.000000
        97        100     1         1.022923    3000.000000
        97        120     1         0.935900    3000.000000
        97        121     1         0.632068    3000.000000
        97        122     1         0.378842    3000.000000
        97        123     1         0.363865    3000.000000
        97        124     1         0.606026    3000.000000
        97        125     1         0.910897    3000.000000
        97        145     1         1.052499    3000.000000
        97        146     1         0.813863    3000.000000
        97        147     1         0.666640    3000.000000
        97        148     1         0.712526    3000.000000
        97        149     1         0.916204    3000.000000
        97        169     1         1.044231    3000.000000
        97        170     1         0.971464    3000.000000
        97        171     1         1.056783    3000.000000
        98         99     1         0.348296    3000.000000
        98        100     1         0.692573    3000.000000
        98        101     1         1.026190    3000.000000
        98        121     1         0.930636    3000.000000
        98        122     1         0.622097    3000.000000
        98        123     1         0.368828    3000.000000
        98        124     1         0.356401    3000.000000
        98        125     1         0.600187    3000.000000
        98        126     1         0.914931    3000.000000
        98        146     1         1.024162    3000.000000
        98        147     1         0.773096    3000.000000
        98        148     1         0.641743    3000.000000
        98        149     1         0.707533    3000.000000
        98        150     1         0.918117    3000.000000
        98        170     1         0.983877    3000.000000
        98        171     1         0.950617    3000.000000
        98        172     1         1.080714    3000.000000
        99        100     1         0.349637    3000.000000
        99        101     1         0.693560    3000.000000
        99        102     1         1.028543    3000.000000
        99        122     1         0.936082    3000.000000
        99        123     1         0.632563    3000.000000
        99        124     1         0.383560    3000.000000
        99        125     1         0.367693    3000.000000
        99        126     1         0.617470    3000.000000
        99        127     1         0.929114    3000.000000
        99        147     1         1.005756    3000.000000
        99        148     1         0.765774    3000.000000
        99        149     1         0.652304    3000.000000
        99        150     1         0.728990    3000.000000
        99        151     1         0.941650    3000.000000
        99        171     1         0.977013    3000.000000
        99        172     1         0.990277    3000.000000
       100        101     1         0.348991    3000.000000
       100        102     1         0.694554    3000.000000
       100        103     1         1.032826    3000.000000
       100        123     1         0.937993    3000.000000
       100        124     1         0.629775    3000.000000
       100        125     1         0.373162    3000.000000
       100        126     1         0.372748    3000.000000
       100        127     1         0.622295    3000.000000
       100        128     1         0.931804    3000.000000
       100        148     1         0.979476    3000.000000
       100        149     1         0.746526    3000.000000
       100        150     1         0.647608    3000.000000
       100        151     1         0.735476    3000.000000
       100        152     1         0.943392    3000.000000
       100        171     1         1.084643    3000.000000
       100        172     1         0.980580    3000.000000
       100        173     1         1.018396    3000.000000
       101        102     1         0.352048    3000.000000
       101        103     1         0.701034    3000.000000
       101        104     1         1.040032    3000.000000
       101        124     1         0.929393    3000.000000
       101        125     1         0.613502    3000.000000
       101        126     1         0.360935    3000.000000
       101        127     1         0.362072    3000.000000
       101        128     1         0.618272    3000.000000
       101        129     1         0.933234    3000.000000
       101        149     1         0.946166    3000.000000
       101        150     1         0.722409    3000.000000
       101        151     1         0.635020    3000.000000
       101        152     1         0.722226    3000.000000
       101        153     1         0.948659    3000.000000
       101        172     1         1.059746    3000.000000
       101        173     1         0.974796    3000.000000
       101        174     1         1.024883    3000.000000
       102        103     1         0.354239    3000.000000
       102        104     1         0.703737    3000.000000
       102        105     1         1.041747    3000.000000
       102        125     1         0.929225    3000.000000
       102        126     1         0.620851    3000.000000
       102        127     1         0.369462    3000.000000
       102        128     1         0.373730    3000.000000
       102        129     1         0.631129    3000.000000
       102        130     1         0.941839    3000.000000
       102        150     1         0.943153    3000.000000
       102        151     1         0.732508    3000.000000
       102        152     1         0.643575    3000.000000
       102        153     1         0.748573    3000.000000
       102        154     1         0.987811    3000.000000
       102        173     1         1.060934    3000.000000
       102        174     1         0.984446    3000.000000
       102        175     1         1.068325    3000.000000
       103        104     1         0.354853    3000.000000
       103        105     1         0.703631    3000.000000
       103        106     1         1.041934    3000.000000
       103        126     1         0.931247    3000.000000
       103        127     1         0.617939    3000.000000
       103        128     1         0.367844    3000.000000
       103        129     1         0.383470    3000.000000
       103        130     1         0.638506    3000.000000
       103        131     1         0.944797    3000.000000
       103        151     1         0.940494    3000.000000
       103        152     1         0.726076    3000.000000
       103        153     1         0.656455    3000.000000
       103        154     1         0.781930    3000.000000
       103        155     1         1.036139    3000.000000
       103        174     1         1.035982    3000.000000
       103        175     1         0.996900    3000.000000
       104        105     1         0.354295    3000.000000
       104        106     1         0.703353    3000.000000
       104        107     1         1.042935    3000.000000
       104        127     1         0.923293    3000.000000
       104        128     1         0.608748    3000.000000
       104        129     1         0.366298    3000.000000
       104        130     1         0.387839    3000.000000
       104        131     1         0.640151    3000.000000
       104        132     1         0.944863    3000.000000
       104        152     1         0.923381    3000.000000
       104        153     1         0.720516    3000.000000
       104        154     1         0.673223    3000.000000
       104        155     1         0.821025    3000.000000
       104        156     1         1.088210    3000.000000
       104        175     1         1.013140    3000.000000
       104        176     1         1.012398    3000.000000
       105        106     1         0.354371    3000.000000
       105        107     1         0.704714    3000.000000
       105        108     1         1.046419    3000.000000
       105        128     1         0.912066    3000.000000
       105        129     1         0.601805    3000.000000
       105        130     1         0.365116    3000.000000
       105        131     1         0.389233    3000.000000
       105        132     1         0.639952    3000.000000
       105        133     1         0.942885    3000.000000
       105        153     1         0.906806    3000.000000
       105        154     1         0.717199    3000.000000
       105        155     1         0.693343    3000.000000
       105        156     1         0.862742    3000.000000
       105        176     1         0.997196    3000.000000
       105        177     1         1.034486    3000.000000
       106        107     1         0.355861    3000.000000
       106        108     1         0.708445    3000.000000
       106        109     1         1.048745    3000.000000
       106        129     1         0.903410    3000.000000
       106        130     1         0.596524    3000.000000
       106        131     1         0.362873    3000.000000
       106        132     1         0.386440    3000.000000
       106        133     1         0.634317    3000.000000
       106        134     1         0.934253    3000.000000
       106        154     1         0.888201    3000.000000
       106        155     1         0.709004    3000.000000
       106        156     1         0.709752    3000.000000
       106        157     1         0.886631    3000.000000
       106        176     1         1.070295    3000.000000
       106        177     1         0.987225    3000.000000
       106        178     1         1.071979    3000.000000
       107        108     1         0.358163    3000.000000
       107        109     1         0.709615    3000.000000
       107        110     1         1.051970    3000.000000
       107        130     1         0.899499    3000.000000
       107        131     1         0.596099    3000.000000
       107        132     1         0.361465    3000.000000
       107        133     1         0.375053    3000.000000
       107        134     1         0.618576    3000.000000
       107        135     1         0.924308    3000.000000
       107        155     1         0.862903    3000.000000
       107        156     1         0.694179    3000.000000
       107        157     1         0.711558    3000.000000
       107        158     1         0.886177    3000.000000
       107        177     1         1.033767    3000.000000
       107        178     1         0.994517    3000.000000
       107        179     1         1.083678    3000.000000
       108        109     1         0.357174    3000.000000
       108        110     1         0.710507    3000.000000
       108        111     1         1.049073    3000.000000
       108        131     1         0.908081    3000.000000
       108        132     1         0.608294    3000.000000
       108        133     1         0.366931    3000.000000
       108        134     1         0.362504    3000.000000
       108        135     1         0.609875    3000.000000
       108        136     1         0.934468    3000.000000
       108        156     1         0.840932    3000.000000
       108        157     1         0.685835    3000.000000
       108        158     1         0.703519    3000.000000
       108        159     1         0.886393    3000.000000
       108        178     1         1.026132    3000.000000
       108        179     1         0.992160    3000.000000
       109        110     1         0.358911    3000.000000
       109        111     1         0.708616    3000.000000
       109        112     1         1.046940    3000.000000
       109        132     1         0.921301    3000.000000
       109        133     1         0.619200    3000.000000
       109        134     1         0.368562    3000.000000
       109        135     1         0.361515    3000.000000
       109        136     1         0.631257    3000.000000
       109        137     1         0.953909    3000.000000
       109        156     1         1.076525    3000.000000
       109        157     1         0.822502    3000.000000
       109        158     1         0.667453    3000.000000
       109        159     1         0.700567    3000.000000
       109        160     1         0.933372    3000.000000
       109        179     1         1.005670    3000.000000
       109        180     1         0.999421    3000.000000
       110        111     1         0.355446    3000.000000
       110        112     1         0.704782    3000.000000
       110        113     1         1.043139    3000.000000
       110        133     1         0.926791    3000.000000
       110        134     1         0.617544    3000.000000
       110        135     1         0.360189    3000.000000
       110        136     1         0.381835    3000.000000
       110        137     1         0.649367    3000.000000
       110        138     1         0.970095    3000.000000
       110        157     1         1.040768    3000.000000
       110        158     1         0.781047    3000.000000
       110        159     1         0.637421    3000.000000
       110        160     1         0.741022    3000.000000
       110        161     1         0.968098    3000.000000
       110        180     1         0.973185    3000.000000
       110        181     1         1.067448    3000.000000
       111        112     1         0.354797    3000.000000
       111        113     1         0.703879    3000.000000
       111        114     1         1.041989    3000.000000
       111        134     1         0.918971    3000.000000
       111        135     1         0.603925    3000.000000
       111        136     1         0.360597    3000.000000
       111        137     1         0.393763    3000.000000
       111        138     1         0.662258    3000.000000
       111        139     1         0.981738    3000.000000
       111        158     1         0.984248    3000.000000
       111        159     1         0.729263    3000.000000
       111        160     1         0.655580    3000.000000
       111        161     1         0.763166    3000.000000
       111        162     1         0.989010    3000.000000
       111        180     1         1.030753    3000.000000
       111        181     1         1.001265    3000.000000
       112        113     1         0.354431    3000.000000
       112        114     1         0.703252    3000.000000
       112        115     1         1.042176    3000.000000
       112        135     1         0.911048    3000.000000
       112        136     1         0.599467    3000.000000
       112        137     1         0.363931    3000.000000
       112        138     1         0.404235    3000.000000
       112        139     1         0.673273    3000.000000
       112        140     1         0.994228    3000.000000
       112        159     1         0.937321    3000.000000
       112        160     1         0.733826    3000.000000
       112        161     1         0.668457    3000.000000
       112        162     1         0.778257    3000.000000
       112        163     1         1.005252    3000.000000
       112        181     1         1.029411    3000.000000
       112        182     1         1.016628    3000.000000
       113        114     1         0.354267    3000.000000
       113        115     1         0.703947    3000.000000
       113        116     1         1.039660    3000.000000
       113        136     1         0.906415    3000.000000
       113        137     1         0.597276    3000.000000
       113        138     1         0.365660    3000.000000
       113        139     1         0.413411    3000.000000
       113        140     1         0.685556    3000.000000
       113        141     1         1.011971    3000.000000
       113        160     1         0.934238    3000.000000
       113        161     1         0.736710    3000.000000
       113        162     1         0.674837    3000.000000
       113        163     1         0.788765    3000.000000
       113        164     1         1.014844    3000.000000
       113        182     1         1.018708    3000.000000
       113        183     1         1.017515    3000.000000
       114        115     1         0.355063    3000.000000
       114        116     1         0.701386    3000.000000
       114        117     1         1.034140    3000.000000
       114        137     1         0.901376    3000.000000
       114        138     1         0.591038    3000.000000
       114        139     1         0.362751    3000.000000
       114        140     1         0.420040    3000.000000
       114        141     1         0.701767    3000.000000
       114        142     1         1.033223    3000.000000
       114        161     1         0.927941    3000.000000
       114        162     1         0.730068    3000.000000
       114        163     1         0.671978    3000.000000
       114        164     1         0.788138    3000.000000
       114        165     1         1.070875    3000.000000
       114        183     1         0.992577    3000.000000
       114        184     1         1.018008    3000.000000
       115        116     1         0.351696    3000.000000
       115        117     1         0.695155    3000.000000
       115        118     1         1.027762    3000.000000
       115        138     1         0.894592    3000.000000
       115        139     1         0.583262    3000.000000
       115        140     1         0.357108    3000.000000
       115        141     1         0.431086    3000.000000
       115        142     1         0.733164    3000.000000
       115        143     1         1.053860    3000.000000
       115        162     1         0.915604    3000.000000
       115        163     1         0.716269    3000.000000
       115        164     1         0.658427    3000.000000
       115        165     1         0.858875    3000.000000
       115        183     1         1.067037    3000.000000
       115        184     1         0.969660    3000.000000
       116        117     1         0.349774    3000.000000
       116        118     1         0.692926    3000.000000
       116        119     1         1.025448    3000.000000
       116        139     1         0.881643    3000.000000
       116        140     1         0.567734    3000.000000
       116        141     1         0.349040    3000.000000
       116        142     1         0.480976    3000.000000
       116        143     1         0.763765    3000.000000
       116        144     1         1.072592    3000.000000
       116        163     1         0.892296    3000.000000
       116        164     1         0.688915    3000.000000
       116        165     1         0.735844    3000.000000
       116        166     1         0.918578    3000.000000
       116        184     1         1.021440    3000.000000
       116        185     1         1.067750    3000.000000
       117        118     1         0.348434    3000.000000
       117        119     1         0.691134    3000.000000
       117        120     1         1.021572    3000.000000
       117        140     1         0.844797    3000.000000
       117        141     1         0.518956    3000.000000
       117        142     1         0.358962    3000.000000
       117        143     1         0.488898    3000.000000
       117        144     1         0.766239    3000.000000
       117        145     1         1.090025    3000.000000
       117        164     1         0.825679    3000.000000
       117        165     1         0.710536    3000.000000
       117        166     1         0.751322    3000.000000
       117        167     1         0.937576    3000.000000
       117        185     1         1.051363    3000.000000
       117        186     1         1.087855    3000.000000
       118        119     1         0.347669    3000.000000
       118        120     1         0.688245    3000.000000
       118        121     1         1.020707    3000.000000
       118        141     1         0.804234    3000.000000
       118        142     1         0.515455    3000.000000
       118        143     1         0.358334    3000.000000
       118        144     1         0.487395    3000.000000
       118        145     1         0.791900    3000.000000
       118        164     1         1.047457    3000.000000
       118        165     1         0.829587    3000.000000
       118        166     1         0.708845    3000.000000
       118        167     1         0.755924    3000.000000
       118        168     1         1.012148    3000.000000
       118        186     1         1.042064    3000.000000
       118        187     1         1.086754    3000.000000
       119        120     1         0.346980    3000.000000
       119        121     1         0.689928    3000.000000
       119        122     1         1.021239    3000.000000
       119        142     1         0.796325    3000.000000
       119        143     1         0.507773    3000.000000
       119        144     1         0.349471    3000.000000
       119        145     1         0.528054    3000.000000
       119        146     1         0.825321    3000.000000
       119        165     1         1.040964    3000.000000
       119        166     1         0.814659    3000.000000
       119        167     1         0.695312    3000.000000
       119        168     1         0.829063    3000.000000
       119        169     1         1.075474    3000.000000
       119        186     1         1.087416    3000.000000
       119        187     1         1.014121    3000.000000
       120        121     1         0.348016    3000.000000
       120        122     1         0.689358    3000.000000
       120        123     1         1.022705    3000.000000
       120        142     1         1.083449    3000.000000
       120        143     1         0.762906    3000.000000
       120        144     1         0.460735    3000.000000
       120        145     1         0.354116    3000.000000
       120        146     1         0.540352    3000.000000
       120        147     1         0.839565    3000.000000
       120        166     1         0.984273    3000.000000
       120        167     1         0.743564    3000.000000
       120        168     1         0.703262    3000.000000
       120        169     1         0.854505    3000.000000
       120        170     1         1.097769    3000.000000
       120        187     1         0.989849    3000.000000
       120        188     1         1.059496    3000.000000
       121        122     1         0.346423    3000.000000
       121        123     1         0.690001    3000.000000
       121        124     1         1.028411    3000.000000
       121        143     1         1.056780    3000.000000
       121        144     1         0.730519    3000.000000
       121        145     1         0.455554    3000.000000
       121        146     1         0.357932    3000.000000
       121        147     1         0.551080    3000.000000
       121        148     1         0.864580    3000.000000
       121        167     1         0.913868    3000.000000
       121        168     1         0.719317    3000.000000
       121        169     1         0.710496    3000.000000
       121        170     1         0.867566    3000.000000
       121        187     1         1.058309    3000.000000
       121        188     1         1.009116    3000.000000
       121        189     1         1.089815    3000.000000
       122        123     1         0.348903    3000.000000
       122        124     1         0.697803    3000.000000
       122        125     1         1.036002    3000.000000
       122        144     1         1.030581    3000.000000
       122        145     1         0.718825    3000.000000
       122        146     1         0.444020    3000.000000
       122        147     1         0.355280    3000.000000
       122        148     1         0.577154    3000.000000
       122        149     1         0.893032    3000.000000
       122        168     1         0.865358    3000.000000
       122        169     1         0.699861    3000.000000
       122        170     1         0.705160    3000.000000
       122        171     1         0.898755    3000.000000
       122        188     1         1.045569    3000.000000
       122        189     1         1.008812    3000.000000
       123        124     1         0.354172    3000.000000
       123        125     1         0.702898    3000.000000
       123        126     1         1.041334    3000.000000
       123        145     1         1.013049    3000.000000
       123        146     1         0.695710    3000.000000
       123        147     1         0.411773    3000.000000
       123        148     1         0.354669    3000.000000
       123        149     1         0.595276    3000.000000
       123        150     1         0.906167    3000.000000
       123        168     1         1.074410    3000.000000
       123        169     1         0.814114    3000.000000
       123        170     1         0.654750    3000.000000
       123        171     1         0.709855    3000.000000
       123        172     1         0.941484    3000.000000
       123        189     1         0.996800    3000.000000
       123        190     1         1.027330    3000.000000
       124        125     1         0.354184    3000.000000
       124        126     1         0.703381    3000.000000
       124        127     1         1.044928    3000.000000
       124        146     1         0.994698    3000.000000
       124        147     1         0.668581    3000.000000
       124        148     1         0.389495    3000.000000
       124        149     1         0.356765    3000.000000
       124        150     1         0.602724    3000.000000
       124        151     1         0.913149    3000.000000
       124        169     1         1.018349    3000.000000
       124        170     1         0.756567    3000.000000
       124        171     1         0.636024    3000.000000
       124        172     1         0.742203    3000.000000
       124        173     1         0.992538    3000.000000
       124        189     1         1.069630    3000.000000
       124        190     1         0.973272    3000.000000
       124        191     1         1.076614    3000.000000
       125        126     1         0.354845    3000.000000
       125        127     1         0.707320    3000.000000
       125        128     1         1.045848    3000.000000
       125        147     1         0.974099    3000.000000
       125        148     1         0.648125    3000.000000
       125        149     1         0.379741    3000.000000
       125        150     1         0.367285    3000.000000
       125        151     1         0.615203    3000.000000
       125        152     1         0.919360    3000.000000
       125        170     1         0.966258    3000.000000
       125        171     1         0.730068    3000.000000
       125        172     1         0.659046    3000.000000
       125        173     1         0.793484    3000.000000
       125        174     1         1.049640    3000.000000
       125        190     1         1.017172    3000.000000
       125        191     1         0.998489    3000.000000
       126        127     1         0.357980    3000.000000
       126        128     1         0.707408    3000.000000
       126        129     1         1.042361    3000.000000
       126        148     1         0.948747    3000.000000
       126        149     1         0.624189    3000.000000
       126        150     1         0.367447    3000.000000
       126        151     1         0.368923    3000.000000
       126        152     1         0.613857    3000.000000
       126        153     1         0.925545    3000.000000
       126        171     1         0.923725    3000.000000
       126        172     1         0.717376    3000.000000
       126        173     1         0.676578    3000.000000
       126        174     1         0.828356    3000.000000
       126        175     1         1.097578    3000.000000
       126        191     1         0.992457    3000.000000
       126        192     1         1.016827    3000.000000
       127        128     1         0.355015    3000.000000
       127        129     1         0.701069    3000.000000
       127        130     1         1.032177    3000.000000
       127        149     1         0.930756    3000.000000
       127        150     1         0.616321    3000.000000
       127        151     1         0.369278    3000.000000
       127        152     1         0.366195    3000.000000
       127        153     1         0.622522    3000.000000
       127        154     1         0.942803    3000.000000
       127        172     1         0.902818    3000.000000
       127        173     1         0.712261    3000.000000
       127        174     1         0.689703    3000.000000
       127        175     1         0.872485    3000.000000
       127        191     1         1.077744    3000.000000
       127        192     1         0.979870    3000.000000
       127        193     1         1.094825    3000.000000
       128        129     1         0.351781    3000.000000
       128        130     1         0.694096    3000.000000
       128        131     1         1.021745    3000.000000
       128        150     1         0.920215    3000.000000
       128        151     1         0.613099    3000.000000
       128        152     1         0.364323    3000.000000
       128        153     1         0.381636    3000.000000
       128        154     1         0.649551    3000.000000
       128        155     1         0.981285    3000.000000
       128        173     1         0.876032    3000.000000
       128        174     1         0.692666    3000.000000
       128        175     1         0.718553    3000.000000
       128        176     1         0.927690    3000.000000
       128        192     1         1.032222    3000.000000
       128        193     1         1.025421    3000.000000
       129        130     1         0.347898    3000.000000
       129        131     1         0.686368    3000.000000
       129        132     1         1.013427    3000.000000
       129        151     1         0.907169    3000.000000
       129        152     1         0.597037    3000.000000
       129        153     1         0.360336    3000.000000
       129        154     1         0.406048    3000.000000
       129        155     1         0.690899    3000.000000
       129        156     1         1.032497    3000.000000
       129        173     1         1.093451    3000.000000
       129        174     1         0.819906    3000.000000
       129        175     1         0.677889    3000.000000
       129        176     1         0.751607    3000.000000
       129        177     1         0.986122    3000.000000
       129        193     1         1.022602    3000.000000
       129        194     1         1.072739    3000.000000
       130        131     1         0.343799    3000.000000
       130        132     1         0.681244    3000.000000
       130        133     1         1.010716    3000.000000
       130        152     1         0.885870    3000.000000
       130        153     1         0.578995    3000.000000
       130        154     1         0.359263    3000.000000
       130        155     1         0.442083    3000.000000
       130        156     1         0.744003    3000.000000
       130        157     1         1.076523    3000.000000
       130        174     1         1.018061    3000.000000
       130        175     1         0.768455    3000.000000
       130        176     1         0.673164    3000.000000
       130        177     1         0.793409    3000.000000
       130        178     1         1.060496    3000.000000
       130        193     1         1.086086    3000.000000
       130        194     1         1.018548    3000.000000
       131        132     1         0.342539    3000.000000
       131        133     1         0.682159    3000.000000
       131        134     1         1.012530    3000.000000
       131        153     1         0.861242    3000.000000
       131        154     1         0.556268    3000.000000
       131        155     1         0.357987    3000.000000
       131        156     1         0.486087    3000.000000
       131        157     1         0.787574    3000.000000
       131        175     1         0.946115    3000.000000
       131        176     1         0.725560    3000.000000
       131        177     1         0.680879    3000.000000
       131        178     1         0.855746    3000.000000
       131        194     1         1.030985    3000.000000
       131        195     1         1.016285    3000.000000
       132        133     1         0.344746    3000.000000
       132        134     1         0.684924    3000.000000
       132        135     1         1.015899    3000.000000
       132        154     1         0.832193    3000.000000
       132        155     1         0.524341    3000.000000
       132        156     1         0.356746    3000.000000
       132        157     1         0.517994    3000.000000
       132        158     1         0.815358    3000.000000
       132        176     1         0.882272    3000.000000
       132        177     1         0.693522    3000.000000
       132        178     1         0.712571    3000.000000
       132        179     1         0.898138    3000.000000
       132        195     1         0.978971    3000.000000
       132        196     1         1.088024    3000.000000
       133        134     1         0.344988    3000.000000
       133        135     1         0.685987    3000.000000
       133        136     1         1.021736    3000.000000
       133        155     1         0.797525    3000.000000
       133        156     1         0.489381    3000.000000
       133        157     1         0.357533    3000.000000
       133        158     1         0.534065    3000.000000
       133        159     1         0.832684    3000.000000
       133        176     1         1.099771    3000.000000
       133        177     1         0.832839    3000.000000
       133        178     1         0.689263    3000.000000
       133        179     1         0.729971    3000.000000
       133        180     1         0.943032    3000.000000
       133        195     1         1.022364    3000.000000
       133        196     1         1.010771    3000.000000
       134        135     1         0.346400    3000.000000
       134        136     1         0.694139    3000.000000
       134        137     1         1.032855    3000.000000
       134        155     1         1.094244    3000.000000
       134        156     1         0.757695    3000.000000
       134        157     1         0.464632    3000.000000
       134        158     1         0.353850    3000.000000
       134        159     1         0.550990    3000.000000
       134        160     1         0.870856    3000.000000
       134        177     1         1.049437    3000.000000
       134        178     1         0.805929    3000.000000
       134        179     1         0.680231    3000.000000
       134        180     1         0.762957    3000.000000
       134        181     1         1.042608    3000.000000
       134        196     1         1.016896    3000.000000
       134        197     1         1.054433    3000.000000
       135        136     1         0.354832    3000.000000
       135        137     1         0.705868    3000.000000
       135        138     1         1.048928    3000.000000
       135        156     1         1.049572    3000.000000
       135        157     1         0.719254    3000.000000
       135        158     1         0.428471    3000.000000
       135        159     1         0.347478    3000.000000
       135        160     1         0.597566    3000.000000
       135        161     1         0.910012    3000.000000
       135        178     1         1.000191    3000.000000
       135        179     1         0.761160    3000.000000
       135        180     1         0.673529    3000.000000
       135        181     1         0.858932    3000.000000
       135        196     1         1.090639    3000.000000
       135        197     1         1.009699    3000.000000
       136        137     1         0.356902    3000.000000
       136        138     1         0.711322    3000.000000
       136        139     1         1.055087    3000.000000
       136        157     1         1.000377    3000.000000
       136        158     1         0.666070    3000.000000
       136        159     1         0.375802    3000.000000
       136        160     1         0.367354    3000.000000
       136        161     1         0.616011    3000.000000
       136        162     1         0.927884    3000.000000
       136        179     1         0.917290    3000.000000
       136        180     1         0.689720    3000.000000
       136        181     1         0.714869    3000.000000
       136        182     1         0.913292    3000.000000
       136        197     1         1.007080    3000.000000
       136        198     1         1.066589    3000.000000
       137        138     1         0.360022    3000.000000
       137        139     1         0.715227    3000.000000
       137        140     1         1.061580    3000.000000
       137        158     1         0.955955    3000.000000
       137        159     1         0.626361    3000.000000
       137        160     1         0.376847    3000.000000
       137        161     1         0.377636    3000.000000
       137        162     1         0.627645    3000.000000
       137        163     1         0.941174    3000.000000
       137        180     1         0.832266    3000.000000
       137        181     1         0.689062    3000.000000
       137        182     1         0.740249    3000.000000
       137        183     1         0.946883    3000.000000
       137        197     1         1.075761    3000.000000
       137        198     1         1.013379    3000.000000
       138        139     1         0.361173    3000.000000
       138        140     1         0.719205    3000.000000
       138        141     1         1.070012    3000.000000
       138        159     1         0.932528    3000.000000
       138        160     1         0.623550    3000.000000
       138        161     1         0.378324    3000.000000
       138        162     1         0.382604    3000.000000
       138        163     1         0.636032    3000.000000
       138        164     1         0.949178    3000.000000
       138        180     1         1.052290    3000.000000
       138        181     1         0.804685    3000.000000
       138        182     1         0.681129    3000.000000
       138        183     1         0.751055    3000.000000
       138        184     1         0.977614    3000.000000
       138        198     1         1.040239    3000.000000
       138        199     1         1.016002    3000.000000
       139        140     1         0.363816    3000.000000
       139        141     1         0.726474    3000.000000
       139        142     1         1.059920    3000.000000
       139        160     1         0.928915    3000.000000
       139        161     1         0.621272    3000.000000
       139        162     1         0.374363    3000.000000
       139        163     1         0.383639    3000.000000
       139        164     1         0.638832    3000.000000
       139        165     1         0.972427    3000.000000
       139        181     1         1.010904    3000.000000
       139        182     1         0.769876    3000.000000
       139        183     1         0.661511    3000.000000
       139        184     1         0.764111    3000.000000
       139        185     1         1.069502    3000.000000
       139        199     1         1.000261    3000.000000
       139        200     1         1.039695    3000.000000
       140        141     1         0.368799    3000.000000
       140        142     1         0.716274    3000.000000
       140        143     1         1.052848    3000.000000
       140        161     1         0.927942    3000.000000
       140        162     1         0.616615    3000.000000
       140        163     1         0.366111    3000.000000
       140        164     1         0.376114    3000.000000
       140        165     1         0.679158    3000.000000
       140        166     1         1.005116    3000.000000
       140        182     1         0.965189    3000.000000
       140        183     1         0.727947    3000.000000
       140        184     1         0.648035    3000.000000
       140        185     1         0.873761    3000.000000
       140        199     1         1.070172    3000.000000
       140        200     1         0.982915    3000.000000
       141        142     1         0.357537    3000.000000
       141        143     1         0.707238    3000.000000
       141        144     1         1.043452    3000.000000
       141        162     1         0.925536    3000.000000
       141        163     1         0.608659    3000.000000
       141        164     1         0.347938    3000.000000
       141        165     1         0.442711    3000.000000
       141        166     1         0.719415    3000.000000
       141        167     1         1.040878    3000.000000
       141        183     1         0.914415    3000.000000
       141        184     1         0.688716    3000.000000
       141        185     1         0.756494    3000.000000
       141        186     1         0.959431    3000.000000
       141        200     1         1.012048    3000.000000
       142        143     1         0.355141    3000.000000
       142        144     1         0.702051    3000.000000
       142        145     1         1.031644    3000.000000
       142        163     1         0.881781    3000.000000
       142        164     1         0.551389    3000.000000
       142        165     1         0.359399    3000.000000
       142        166     1         0.450976    3000.000000
       142        167     1         0.733774    3000.000000
       142        168     1         1.089132    3000.000000
       142        184     1         0.811382    3000.000000
       142        185     1         0.708947    3000.000000
       142        186     1         0.774652    3000.000000
       142        187     1         0.985669    3000.000000
       142        200     1         1.064200    3000.000000
       142        201     1         1.034108    3000.000000
       143        144     1         0.352257    3000.000000
       143        145     1         0.694105    3000.000000
       143        146     1         1.029341    3000.000000
       143        164     1         0.846409    3000.000000
       143        165     1         0.551287    3000.000000
       143        166     1         0.357516    3000.000000
       143        167     1         0.461820    3000.000000
       143        168     1         0.796578    3000.000000
       143        184     1         1.022821    3000.000000
       143        185     1         0.804756    3000.000000
       143        186     1         0.700244    3000.000000
       143        187     1         0.783689    3000.000000
       143        188     1         1.075231    3000.000000
       143        201     1         1.047363    3000.000000
       143        202     1         1.015911    3000.000000
       144        145     1         0.351239    3000.000000
       144        146     1         0.699558    3000.000000
       144        147     1         1.039131    3000.000000
       144        165     1         0.839378    3000.000000
       144        166     1         0.539091    3000.000000
       144        167     1         0.351308    3000.000000
       144        168     1         0.542182    3000.000000
       144        169     1         0.853952    3000.000000
       144        185     1         0.997197    3000.000000
       144        186     1         0.770731    3000.000000
       144        187     1         0.681883    3000.000000
       144        188     1         0.892137    3000.000000
       144        202     1         0.993179    3000.000000
       145        146     1         0.353726    3000.000000
       145        147     1         0.704345    3000.000000
       145        148     1         1.046150    3000.000000
       145        166     1         0.789872    3000.000000
       145        167     1         0.470206    3000.000000
       145        168     1         0.354686    3000.000000
       145        169     1         0.567148    3000.000000
       145        170     1         0.872897    3000.000000
       145        186     1         0.895854    3000.000000
       145        187     1         0.661587    3000.000000
       145        188     1         0.726756    3000.000000
       145        189     1         0.944425    3000.000000
       145        202     1         0.994397    3000.000000
       145        203     1         1.060743    3000.000000
       146        147     1         0.356351    3000.000000
       146        148     1         0.710113    3000.000000
       146        149     1         1.049855    3000.000000
       146        166     1         1.075367    3000.000000
       146        167     1         0.737154    3000.000000
       146        168     1         0.431942    3000.000000
       146        169     1         0.359470    3000.000000
       146        170     1         0.579041    3000.000000
       146        171     1         0.893516    3000.000000
       146        186     1         1.090224    3000.000000
       146        187     1         0.782029    3000.000000
       146        188     1         0.673457    3000.000000
       146        189     1         0.757914    3000.000000
       146        190     1         1.025170    3000.000000
       146        202     1         1.072243    3000.000000
       146        203     1         1.017814    3000.000000
       146        204     1         1.093968    3000.000000
       147        148     1         0.360393    3000.000000
       147        149     1         0.712928    3000.000000
       147        150     1         1.042958    3000.000000
       147        167     1         1.037367    3000.000000
       147        168     1         0.692043    3000.000000
       147        169     1         0.412501    3000.000000
       147        170     1         0.356891    3000.000000
       147        171     1         0.602967    3000.000000
       147        172     1         0.926972    3000.000000
       147        187     1         0.991200    3000.000000
       147        188     1         0.763910    3000.000000
       147        189     1         0.672510    3000.000000
       147        190     1         0.828152    3000.000000
       147        203     1         1.051834    3000.000000
       147        204     1         1.007747    3000.000000
       148        149     1         0.358944    3000.000000
       148        150     1         0.701403    3000.000000
       148        151     1         1.028111    3000.000000
       148        168     1         0.985784    3000.000000
       148        169     1         0.656166    3000.000000
       148        170     1         0.375116    3000.000000
       148        171     1         0.361583    3000.000000
       148        172     1         0.633522    3000.000000
       148        173     1         0.965593    3000.000000
       148        188     1         0.939068    3000.000000
       148        189     1         0.711006    3000.000000
       148        190     1         0.690313    3000.000000
       148        191     1         0.903005    3000.000000
       148        204     1         0.975516    3000.000000
       149        150     1         0.348748    3000.000000
       149        151     1         0.687386    3000.000000
       149        152     1         1.013203    3000.000000
       149        169     1         0.946452    3000.000000
       149        170     1         0.617845    3000.000000
       149        171     1         0.357350    3000.000000
       149        172     1         0.392078    3000.000000
       149        173     1         0.676072    3000.000000
       149        174     1         1.011250    3000.000000
       149        189     1         0.861182    3000.000000
       149        190     1         0.673285    3000.000000
       149        191     1         0.738530    3000.000000
       149        192     1         0.973722    3000.000000
       149        204     1         1.012878    3000.000000
       149        205     1         1.045407    3000.000000
       150        151     1         0.344304    3000.000000
       150        152     1         0.680982    3000.000000
       150        153     1         1.005742    3000.000000
       150        170     1         0.903592    3000.000000
       150        171     1         0.585828    3000.000000
       150        172     1         0.358650    3000.000000
       150        173     1         0.434579    3000.000000
       150        174     1         0.726816    3000.000000
       150        175     1         1.057008    3000.000000
       150        189     1         1.062313    3000.000000
       150        190     1         0.779871    3000.000000
       150        191     1         0.673544    3000.000000
       150        192     1         0.789347    3000.000000
       150        193     1         1.079462    3000.000000
       150        205     1         1.021983    3000.000000
       151        152     1         0.342025    3000.000000
       151        153     1         0.678125    3000.000000
       151        154     1         1.006484    3000.000000
       151        171     1         0.867107    3000.000000
       151        172     1         0.559179    3000.000000
       151        173     1         0.357768    3000.000000
       151        174     1         0.471451    3000.000000
       151        175     1         0.775341    3000.000000
       151        190     1         0.959390    3000.000000
       151        191     1         0.729391    3000.000000
       151        192     1         0.678438    3000.000000
       151        193     1         0.885963    3000.000000
       151        205     1         1.054481    3000.000000
       151        206     1         1.016737    3000.000000
       152        153     1         0.342486    3000.000000
       152        154     1         0.683849    3000.000000
       152        155     1         1.024146    3000.000000
       152        172     1         0.835599    3000.000000
       152        173     1         0.530188    3000.000000
       152        174     1         0.354780    3000.000000
       152        175     1         0.521418    3000.000000
       152        176     1         0.830714    3000.000000
       152        191     1         0.887501    3000.000000
       152        192     1         0.693390    3000.000000
       152        193     1         0.753633    3000.000000
       152        194     1         0.995206    3000.000000
       152        206     1         0.997632    3000.000000
       153        154     1         0.348013    3000.000000
       153        155     1         0.701879    3000.000000
       153        156     1         1.053883    3000.000000
       153        173     1         0.786436    3000.000000
       153        174     1         0.473664    3000.000000
       153        175     1         0.356140    3000.000000
       153        176     1         0.565495    3000.000000
       153        177     1         0.882706    3000.000000
       153        191     1         1.081229    3000.000000
       153        192     1         0.804986    3000.000000
       153        193     1         0.699535    3000.000000
       153        194     1         0.826098    3000.000000
       153        195     1         1.089132    3000.000000
       153        206     1         1.024153    3000.000000
       153        207     1         1.094372    3000.000000
       154        155     1         0.360795    3000.000000
       154        156     1         0.726882    3000.000000
       154        157     1         1.073124    3000.000000
       154        173     1         1.059404    3000.000000
       154        174     1         0.717767    3000.000000
       154        175     1         0.422356    3000.000000
       154        176     1         0.359263    3000.000000
       154        177     1         0.603528    3000.000000
       154        178     1         0.936972    3000.000000
       154        192     1         0.976021    3000.000000
       154        193     1         0.744862    3000.000000
       154        194     1         0.707939    3000.000000
       154        195     1         0.884110    3000.000000
       154        206     1         1.090855    3000.000000
       154        207     1         1.045065    3000.000000
       155        156     1         0.373425    3000.000000
       155        157     1         0.733216    3000.000000
       155        158     1         1.074379    3000.000000
       155        174     1         0.999959    3000.000000
       155        175     1         0.665398    3000.000000
       155        176     1         0.384288    3000.000000
       155        177     1         0.364805    3000.000000
       155        178     1         0.643946    3000.000000
       155        179     1         0.970522    3000.000000
       155        193     1         0.882411    3000.000000
       155        194     1         0.688982    3000.000000
       155        195     1         0.710585    3000.000000
       155        196     1         0.979719    3000.000000
       155        207     1         1.038795    3000.000000
       155        208     1         1.037606    3000.000000
       156        157     1         0.366549    3000.000000
       156        158     1         0.720320    3000.000000
       156        159     1         1.050425    3000.000000
       156        175     1         0.962417    3000.000000
       156        176     1         0.634327    3000.000000
       156        177     1         0.362537    3000.000000
       156        178     1         0.387105    3000.000000
       156        179     1         0.660620    3000.000000
       156        180     1         0.989008    3000.000000
       156        193     1         1.081457    3000.000000
       156        194     1         0.795345    3000.000000
       156        195     1         0.635803    3000.000000
       156        196     1         0.778062    3000.000000
       156        197     1         1.055290    3000.000000
       156        207     1         1.088225    3000.000000
       156        208     1         0.960121    3000.000000
       157        158     1         0.359812    3000.000000
       157        159     1         0.702155    3000.000000
       157        160     1         1.017045    3000.000000
       157        176     1         0.934859    3000.000000
       157        177     1         0.609879    3000.000000
       157        178     1         0.360358    3000.000000
       157        179     1         0.399426    3000.000000
       157        180     1         0.685182    3000.000000
       157        181     1         1.025840    3000.000000
       157        194     1         0.986761    3000.000000
       157        195     1         0.714359    3000.000000
       157        196     1         0.668192    3000.000000
       157        197     1         0.846025    3000.000000
       157        208     1         0.960777    3000.000000
       157        209     1         1.067575    3000.000000
       158        159     1         0.348915    3000.000000
       158        160     1         0.681004    3000.000000
       158        161     1         1.003827    3000.000000
       158        177     1         0.912695    3000.000000
       158        178     1         0.592183    3000.000000
       158        179     1         0.354900    3000.000000
       158        180     1         0.432437    3000.000000
       158        181     1         0.755803    3000.000000
       158        182     1         1.091739    3000.000000
       158        195     1         0.905187    3000.000000
       158        196     1         0.706180    3000.000000
       158        197     1         0.717264    3000.000000
       158        198     1         0.986899    3000.000000
       158        208     1         1.045344    3000.000000
       158        209     1         1.026571    3000.000000
       159        160     1         0.344909    3000.000000
       159        161     1         0.683729    3000.000000
       159        162     1         1.014356    3000.000000
       159        178     1         0.873798    3000.000000
       159        179     1         0.554312    3000.000000
       159        180     1         0.349105    3000.000000
       159        181     1         0.529307    3000.000000
       159        182     1         0.841214    3000.000000
       159        196     1         0.846274    3000.000000
       159        197     1         0.695409    3000.000000
       159        198     1         0.851903    3000.000000
       159        209     1         1.039541    3000.000000
       160        161     1         0.344620    3000.000000
       160        162     1         0.686586    3000.000000
       160        163     1         1.020319    3000.000000
       160        179     1         0.790956    3000.000000
       160        180     1         0.467403    3000.000000
       160        181     1         0.362307    3000.000000
       160        182     1         0.570688    3000.000000
       160        183     1         0.882411    3000.000000
       160        196     1         0.989680    3000.000000
       160        197     1         0.724920    3000.000000
       160        198     1         0.724231    3000.000000
       160        199     1         0.920405    3000.000000
       160        209     1         1.041446    3000.000000
       160        210     1         1.084583    3000.000000
       161        162     1         0.347556    3000.000000
       161        163     1         0.692497    3000.000000
       161        164     1         1.027288    3000.000000
       161        179     1         1.055353    3000.000000
       161        180     1         0.718613    3000.000000
       161        181     1         0.435179    3000.000000
       161        182     1         0.371927    3000.000000
       161        183     1         0.601543    3000.000000
       161        184     1         0.920594    3000.000000
       161        197     1         0.854624    3000.000000
       161        198     1         0.697393    3000.000000
       161        199     1         0.753834    3000.000000
       161        200     1         1.000085    3000.000000
       161        209     1         1.095592    3000.000000
       161        210     1         1.023184    3000.000000
       162        163     1         0.350649    3000.000000
       162        164     1         0.696622    3000.000000
       162        165     1         1.011155    3000.000000
       162        180     1         1.002456    3000.000000
       162        181     1         0.676152    3000.000000
       162        182     1         0.402682    3000.000000
       162        183     1         0.375272    3000.000000
       162        184     1         0.632662    3000.000000
       162        185     1         0.974820    3000.000000
       162        197     1         1.046620    3000.000000
       162        198     1         0.788757    3000.000000
       162        199     1         0.675874    3000.000000
       162        200     1         0.808416    3000.000000
       162        210     1         1.020990    3000.000000
       162        211     1         1.082151    3000.000000
       163        164     1         0.351581    3000.000000
       163        165     1         0.683568    3000.000000
       163        166     1         1.014476    3000.000000
       163        181     1         0.960786    3000.000000
       163        182     1         0.633677    3000.000000
       163        183     1         0.368193    3000.000000
       163        184     1         0.387554    3000.000000
       163        185     1         0.713334    3000.000000
       163        186     1         1.050387    3000.000000
       163        198     1         0.963505    3000.000000
       163        199     1         0.724724    3000.000000
       163        200     1         0.687018    3000.000000
       163        201     1         0.963524    3000.000000
       163        210     1         1.080538    3000.000000
       163        211     1         1.023562    3000.000000
       164        165     1         0.349991    3000.000000
       164        166     1         0.697373    3000.000000
       164        167     1         1.039436    3000.000000
       164        182     1         0.920115    3000.000000
       164        183     1         0.594348    3000.000000
       164        184     1         0.348785    3000.000000
       164        185     1         0.509649    3000.000000
       164        186     1         0.808679    3000.000000
       164        199     1         0.881949    3000.000000
       164        200     1         0.690949    3000.000000
       164        201     1         0.846131    3000.000000
       164        202     1         1.096599    3000.000000
       164        211     1         1.031019    3000.000000
       165        166     1         0.352833    3000.000000
       165        167     1         0.706021    3000.000000
       165        168     1         1.054446    3000.000000
       165        183     1         0.826537    3000.000000
       165        184     1         0.491607    3000.000000
       165        185     1         0.361892    3000.000000
       165        186     1         0.531908    3000.000000
       165        187     1         0.838069    3000.000000
       165        199     1         1.014493    3000.000000
       165        200     1         0.723083    3000.000000
       165        201     1         0.713747    3000.000000
       165        202     1         0.873424    3000.000000
       165        211     1         1.003060    3000.000000
       165        212     1         1.075371    3000.000000
       166        167     1         0.358940    3000.000000
       166        168     1         0.723827    3000.000000
       166        169     1         1.056788    3000.000000
       166        183     1         1.098936    3000.000000
       166        184     1         0.765171    3000.000000
       166        185     1         0.480118    3000.000000
       166        186     1         0.359534    3000.000000
       166        187     1         0.553132    3000.000000
       166        188     1         0.890904    3000.000000
       166        200     1         0.874822    3000.000000
       166        201     1         0.706201    3000.000000
       166        202     1         0.708772    3000.000000
       166        203     1         1.010860    3000.000000
       166        211     1         1.052856    3000.000000
       166        212     1         1.000202    3000.000000
       167        168     1         0.378626    3000.000000
       167        169     1         0.729851    3000.000000
       167        170     1         1.060444    3000.000000
       167        184     1         1.065992    3000.000000
       167        185     1         0.745145    3000.000000
       167        186     1         0.451217    3000.000000
       167        187     1         0.350230    3000.000000
       167        188     1         0.633040    3000.000000
       167        189     1         0.962514    3000.000000
       167        200     1         1.089618    3000.000000
       167        201     1         0.824756    3000.000000
       167        202     1         0.656593    3000.000000
       167        203     1         0.864091    3000.000000
       167        212     1         0.995565    3000.000000
       168        169     1         0.358827    3000.000000
       168        170     1         0.703087    3000.000000
       168        171     1         1.024254    3000.000000
       168        185     1         1.019167    3000.000000
       168        186     1         0.680800    3000.000000
       168        187     1         0.360861    3000.000000
       168        188     1         0.384117    3000.000000
       168        189     1         0.658327    3000.000000
       168        190     1         1.004822    3000.000000
       168        201     1         0.972768    3000.000000
       168        202     1         0.683593    3000.000000
       168        203     1         0.723319    3000.000000
       168        204     1         0.925282    3000.000000
       168        212     1         0.995359    3000.000000
       168        213     1         1.083453    3000.000000
       169        170     1         0.350346    3000.000000
       169        171     1         0.685443    3000.000000
       169        172     1         1.003870    3000.000000
       169        186     1         0.951822    3000.000000
       169        187     1         0.605411    3000.000000
       169        188     1         0.364575    3000.000000
       169        189     1         0.410713    3000.000000
       169        190     1         0.722356    3000.000000
       169        191     1         1.058952    3000.000000
       169        202     1         0.824881    3000.000000
       169        203     1         0.694960    3000.000000
       169        204     1         0.753569    3000.000000
       169        205     1         1.064071    3000.000000
       169        212     1         1.053551    3000.000000
       169        213     1         1.016333    3000.000000
       170        171     1         0.343910    3000.000000
       170        172     1         0.680830    3000.000000
       170        173     1         1.012850    3000.000000
       170        187     1         0.895680    3000.000000
       170        188     1         0.581471    3000.000000
       170        189     1         0.356333    3000.000000
       170        190     1         0.485143    3000.000000
       170        191     1         0.804282    3000.000000
       170        202     1         1.026830    3000.000000
       170        203     1         0.788168    3000.000000
       170        204     1         0.677342    3000.000000
       170        205     1         0.914152    3000.000000
       170        213     1         1.011297    3000.000000
       171        172     1         0.346632    3000.000000
       171        173     1         0.695489    3000.000000
       171        174     1         1.039468    3000.000000
       171        188     1         0.838686    3000.000000
       171        189     1         0.517514    3000.000000
       171        190     1         0.352627    3000.000000
       171        191     1         0.557520    3000.000000
       171        192     1         0.876986    3000.000000
       171        203     1         0.926545    3000.000000
       171        204     1         0.685511    3000.000000
       171        205     1         0.788974    3000.000000
       171        206     1         1.045440    3000.000000
       171        213     1         1.027915    3000.000000
       172        173     1         0.356327    3000.000000
       172        174     1         0.714348    3000.000000
       172        175     1         1.045778    3000.000000
       172        188     1         1.090454    3000.000000
       172        189     1         0.755446    3000.000000
       172        190     1         0.434343    3000.000000
       172        191     1         0.361018    3000.000000
       172        192     1         0.603597    3000.000000
       172        193     1         0.946432    3000.000000
       172        203     1         1.077722    3000.000000
       172        204     1         0.766424    3000.000000
       172        205     1         0.704098    3000.000000
       172        206     1         0.858586    3000.000000
       172        213     1         1.055936    3000.000000
       172        214     1         1.060959    3000.000000
       173        174     1         0.364903    3000.000000
       173        175     1         0.711383    3000.000000
       173        176     1         1.033321    3000.000000
       173        189     1         1.021952    3000.000000
       173        190     1         0.672896    3000.000000
       173        191     1         0.386224    3000.000000
       173        192     1         0.367219    3000.000000
       173        193     1         0.668764    3000.000000
       173        194     1         1.007337    3000.000000
       173        204     1         0.919261    3000.000000
       173        205     1         0.713566    3000.000000
       173        206     1         0.705987    3000.000000
       173        207     1         1.006507    3000.000000
       173        214     1         1.003077    3000.000000
       174        175     1         0.355637    3000.000000
       174        176     1         0.695571    3000.000000
       174        177     1         1.016530    3000.000000
       174        190     1         0.961267    3000.000000
       174        191     1         0.628093    3000.000000
       174        192     1         0.357804    3000.000000
       174        193     1         0.434278    3000.000000
       174        194     1         0.740269    3000.000000
       174        195     1         1.072142    3000.000000
       174        205     1         0.835577    3000.000000
       174        206     1         0.657447    3000.000000
       174        207     1         0.858418    3000.000000
       174        214     1         1.003204    3000.000000
       175        176     1         0.348960    3000.000000
       175        177     1         0.688137    3000.000000
       175        178     1         1.015783    3000.000000
       175        191     1         0.900316    3000.000000
       175        192     1         0.569303    3000.000000
       175        193     1         0.360196    3000.000000
       175        194     1         0.499277    3000.000000
       175        195     1         0.809180    3000.000000
       175        205     1         0.997549    3000.000000
       175        206     1         0.712860    3000.000000
       175        207     1         0.756699    3000.000000
       175        208     1         0.983541    3000.000000
       175        214     1         1.034453    3000.000000
       176        177     1         0.348451    3000.000000
       176        178     1         0.695616    3000.000000
       176        179     1         1.028904    3000.000000
       176        192     1         0.829267    3000.000000
       176        193     1         0.508922    3000.000000
       176        194     1         0.361305    3000.000000
       176        195     1         0.553005    3000.000000
       176        196     1         0.898996    3000.000000
       176        206     1         0.838204    3000.000000
       176        207     1         0.721072    3000.000000
       176        208     1         0.822707    3000.000000
       176        214     1         1.084770    3000.000000
       176        215     1         1.065188    3000.000000
       177        178     1         0.357453    3000.000000
       177        179     1         0.706101    3000.000000
       177        180     1         1.037616    3000.000000
       177        192     1         1.085953    3000.000000
       177        193     1         0.746452    3000.000000
       177        194     1         0.440639    3000.000000
       177        195     1         0.353712    3000.000000
       177        196     1         0.639989    3000.000000
       177        197     1         0.978110    3000.000000
       177        206     1         0.995262    3000.000000
       177        207     1         0.758574    3000.000000
       177        208     1         0.695957    3000.000000
       177        209     1         0.987565    3000.000000
       177        215     1         1.011464    3000.000000
       178        179     1         0.355146    3000.000000
       178        180     1         0.700883    3000.000000
       178        181     1         1.012317    3000.000000
       178        193     1         0.999244    3000.000000
       178        194     1         0.660314    3000.000000
       178        195     1         0.359785    3000.000000
       178        196     1         0.398762    3000.000000
       178        197     1         0.696562    3000.000000
       178        198     1         1.034490    3000.000000
       178        207     1         0.853507    3000.000000
       178        208     1         0.633177    3000.000000
       178        209     1         0.815545    3000.000000
       178        215     1         0.969866    3000.000000
       179        180     1         0.353867    3000.000000
       179        181     1         0.690013    3000.000000
       179        182     1         1.017029    3000.000000
       179        194     1         0.932756    3000.000000
       179        195     1         0.595454    3000.000000
       179        196     1         0.356805    3000.000000
       179        197     1         0.456163    3000.000000
       179        198     1         0.791066    3000.000000
       179        207     1         1.015731    3000.000000
       179        208     1         0.706534    3000.000000
       179        209     1         0.717550    3000.000000
       179        210     1         1.004861    3000.000000
       179        215     1         0.992203    3000.000000
       180        181     1         0.356258    3000.000000
       180        182     1         0.705982    3000.000000
       180        183     1         1.039373    3000.000000
       180        195     1         0.873280    3000.000000
       180        196     1         0.544619    3000.000000
       180        197     1         0.352518    3000.000000
       180        198     1         0.572702    3000.000000
       180        199     1         0.899365    3000.000000
       180        208     1         0.859017    3000.000000
       180        209     1         0.706817    3000.000000
       180        210     1         0.888875    3000.000000
       180        215     1         1.050924    3000.000000
       181        182     1         0.357059    3000.000000
       181        183     1         0.704293    3000.000000
       181        184     1         1.034065    3000.000000
       181        196     1         0.761938    3000.000000
       181        197     1         0.430127    3000.000000
       181        198     1         0.369318    3000.000000
       181        199     1         0.620463    3000.000000
       181        200     1         0.956750    3000.000000
       181        208     1         0.985975    3000.000000
       181        209     1         0.714055    3000.000000
       181        210     1         0.741989    3000.000000
       181        211     1         1.011583    3000.000000
       181        215     1         1.063687    3000.000000
       182        183     1         0.353975    3000.000000
       182        184     1         0.698358    3000.000000
       182        185     1         0.993205    3000.000000
       182        196     1         1.015865    3000.000000
       182        197     1         0.673464    3000.000000
       182        198     1         0.395033    3000.000000
       182        199     1         0.390145    3000.000000
       182        200     1         0.678310    3000.000000
       182        201     1         1.019724    3000.000000
       182        209     1         0.821677    3000.000000
       182        210     1         0.680567    3000.000000
       182        211     1         0.841243    3000.000000
       182        216     1         1.073403    3000.000000
       183        184     1         0.352514    3000.000000
       183        185     1         0.677661    3000.000000
       183        186     1         1.008711    3000.000000
       183        197     1         0.953215    3000.000000
       183        198     1         0.622245    3000.000000
       183        199     1         0.365638    3000.000000
       183        200     1         0.442464    3000.000000
       183        201     1         0.789478    3000.000000
       183        209     1         0.993670    3000.000000
       183        210     1         0.736211    3000.000000
       183        211     1         0.734562    3000.000000
       183        212     1         1.052211    3000.000000
       183        216     1         1.053834    3000.000000
       184        185     1         0.355692    3000.000000
       184        186     1         0.708910    3000.000000
       184        187     1         1.049381    3000.000000
       184        198     1         0.891172    3000.000000
       184        199     1         0.560683    3000.000000
       184        200     1         0.353644    3000.000000
       184        201     1         0.591045    3000.000000
       184        202     1         0.907986    3000.000000
       184        210     1         0.868182    3000.000000
       184        211     1         0.709742    3000.000000
       184        212     1         0.940411    3000.000000
       184        216     1         1.063582    3000.000000
       185        186     1         0.358921    3000.000000
       185        187     1         0.711577    3000.000000
       185        188     1         1.007526    3000.000000
       185        198     1         1.085413    3000.000000
       185        199     1         0.748488    3000.000000
       185        200     1         0.408418    3000.000000
       185        201     1         0.366793    3000.000000
       185        202     1         0.609663    3000.000000
       185        203     1         0.947111    3000.000000
       185        210     1         0.936772    3000.000000
       185        211     1         0.657970    3000.000000
       185        212     1         0.749089    3000.000000
       185        213     1         1.090730    3000.000000
       185        216     1         0.983449    3000.000000
       186        187     1         0.359463    3000.000000
       186        188     1         0.681029    3000.000000
       186        189     1         1.001879    3000.000000
       186        199     1         1.004152    3000.000000
       186        200     1         0.664145    3000.000000
       186        201     1         0.389945    3000.000000
       186        202     1         0.366580    3000.000000
       186        203     1         0.702546    3000.000000
       186        204     1         1.039636    3000.000000
       186        210     1         1.081795    3000.000000
       186        211     1         0.751490    3000.000000
       186        212     1         0.655758    3000.000000
       186        213     1         0.952619    3000.000000
       186        216     1         0.980091    3000.000000
       187        188     1         0.351717    3000.000000
       187        189     1         0.699122    3000.000000
       187        190     1         1.034202    3000.000000
       187        200     1         0.957387    3000.000000
       187        201     1         0.625385    3000.000000
       187        202     1         0.348162    3000.000000
       187        203     1         0.524516    3000.000000
       187        204     1         0.831369    3000.000000
       187        211     1         0.931243    3000.000000
       187        212     1         0.692342    3000.000000
       187        213     1         0.871060    3000.000000
       187        216     1         1.038688    3000.000000
       188        189     1         0.353850    3000.000000
       188        190     1         0.706909    3000.000000
       188        191     1         1.019754    3000.000000
       188        201     1         0.824402    3000.000000
       188        202     1         0.477005    3000.000000
       188        203     1         0.363997    3000.000000
       188        204     1         0.558656    3000.000000
       188        205     1         0.900219    3000.000000
       188        211     1         1.033641    3000.000000
       188        212     1         0.709787    3000.000000
       188        213     1         0.728611    3000.000000
       188        214     1         1.055849    3000.000000
       188        216     1         1.012655    3000.000000
       189        190     1         0.366220    3000.000000
       189        191     1         0.705377    3000.000000
       189        192     1         1.022353    3000.000000
       189        201     1         1.062243    3000.000000
       189        202     1         0.734326    3000.000000
       189        203     1         0.447140    3000.000000
       189        204     1         0.360235    3000.000000
       189        205     1         0.671766    3000.000000
       189        206     1         1.012038    3000.000000
       189        212     1         0.830711    3000.000000
       189        213     1         0.679460    3000.000000
       189        214     1         0.938227    3000.000000
       189        216     1         1.038546    3000.000000
       190        191     1         0.353845    3000.000000
       190        192     1         0.694679    3000.000000
       190        193     1         1.009726    3000.000000
       190        202     1         0.997133    3000.000000
       190        203     1         0.663299    3000.000000
       190        204     1         0.357396    3000.000000
       190        205     1         0.460072    3000.000000
       190        206     1         0.766886    3000.000000
       190        207     1         1.084179    3000.000000
       190        212     1         0.974634    3000.000000
       190        213     1         0.697812    3000.000000
       190        214     1         0.819942    3000.000000
       190        216     1         1.061528    3000.000000
       191        192     1         0.350669    3000.000000
       191        193     1         0.692026    3000.000000
       191        194     1         1.007743    3000.000000
       191        203     1         0.889358    3000.000000
       191        204     1         0.546430    3000.000000
       191        205     1         0.364829    3000.000000
       191        206     1         0.519858    3000.000000
       191        207     1         0.865009    3000.000000
       191        213     1         0.765784    3000.000000
       191        214     1         0.720142    3000.000000
       191        215     1         1.048970    3000.000000
       191        216     1         1.067234    3000.000000
       192        193     1         0.359312    3000.000000
       192        194     1         0.702878    3000.000000
       192        195     1         1.020973    3000.000000
       192        204     1         0.797227    3000.000000
       192        205     1         0.487296    3000.000000
       192        206     1         0.353408    3000.000000
       192        207     1         0.654573    3000.000000
       192        208     1         0.995147    3000.000000
       192        213     1         0.886563    3000.000000
       192        214     1         0.689169    3000.000000
       192        215     1         0.950015    3000.000000
       192        216     1         1.083552    3000.000000
       193        194     1         0.355343    3000.000000
       193        195     1         0.695714    3000.000000
       193        196     1         1.003006    3000.000000
       193        204     1         1.025315    3000.000000
       193        205     1         0.688041    3000.000000
       193        206     1         0.364933    3000.000000
       193        207     1         0.443420    3000.000000
       193        208     1         0.746264    3000.000000
       193        209     1         1.066252    3000.000000
       193        213     1         0.991994    3000.000000
       193        214     1         0.690357    3000.000000
       193        215     1         0.820728    3000.000000
       193        216     1         1.059951    3000.000000
       194        195     1         0.351253    3000.000000
       194        196     1         0.690673    3000.000000
       194        197     1         1.008867    3000.000000
       194        205     1         0.914296    3000.000000
       194        206     1         0.570285    3000.000000
       194        207     1         0.370135    3000.000000
       194        208     1         0.505152    3000.000000
       194        209     1         0.856884    3000.000000
       194        213     1         1.099713    3000.000000
       194        214     1         0.760834    3000.000000
       194        215     1         0.722514    3000.000000
       194        216     1         1.036930    3000.000000
       195        196     1         0.363299    3000.000000
       195        197     1         0.711024    3000.000000
       195        198     1         1.001911    3000.000000
       195        206     1         0.821023    3000.000000
       195        207     1         0.504558    3000.000000
       195        208     1         0.349565    3000.000000
       195        209     1         0.654746    3000.000000
       195        210     1         0.989669    3000.000000
       195        214     1         0.878250    3000.000000
       195        215     1         0.685627    3000.000000
       195        216     1         1.021330    3000.000000
       196        197     1         0.358007    3000.000000
       196        198     1         0.683229    3000.000000
       196        199     1         0.996843    3000.000000
       196        206     1         1.030744    3000.000000
       196        207     1         0.691440    3000.000000
       196        208     1         0.357349    3000.000000
       196        209     1         0.428908    3000.000000
       196        210     1         0.769190    3000.000000
       196        211     1         1.091682    3000.000000
       196        214     1         0.959446    3000.000000
       196        215     1         0.655916    3000.000000
       196        216     1         0.946307    3000.000000
       197        198     1         0.355529    3000.000000
       197        199     1         0.702442    3000.000000
       197        200     1         1.024678    3000.000000
       197        207     1         0.917621    3000.000000
       197        208     1         0.575919    3000.000000
       197        209     1         0.360581    3000.000000
       197        210     1         0.579760    3000.000000
       197        211     1         0.920590    3000.000000
       197        214     1         1.062506    3000.000000
       197        215     1         0.721040    3000.000000
       197        216     1         0.900606    3000.000000
       198        199     1         0.356463    3000.000000
       198        200     1         0.700693    3000.000000
       198        201     1         0.971101    3000.000000
       198        207     1         1.066726    3000.000000
       198        208     1         0.776885    3000.000000
       198        209     1         0.435686    3000.000000
       198        210     1         0.379045    3000.000000
       198        211     1         0.673561    3000.000000
       198        212     1         1.002512    3000.000000
       198        214     1         1.077384    3000.000000
       198        215     1         0.758674    3000.000000
       198        216     1         0.789545    3000.000000
       199        200     1         0.357370    3000.000000
       199        201     1         0.675410    3000.000000
       199        202     1         0.996986    3000.000000
       199        208     1         1.002490    3000.000000
       199        209     1         0.659456    3000.000000
       199        210     1         0.377101    3000.000000
       199        211     1         0.460913    3000.000000
       199        212     1         0.817940    3000.000000
       199        213     1         1.068996    3000.000000
       199        215     1         0.860554    3000.000000
       199        216     1         0.733802    3000.000000
       200        201     1         0.362229    3000.000000
       200        202     1         0.713090    3000.000000
       200        203     1         0.975253    3000.000000
       200        209     1         0.901610    3000.000000
       200        210     1         0.560261    3000.000000
       200        211     1         0.362516    3000.000000
       200        212     1         0.640026    3000.000000
       200        213     1         0.968018    3000.000000
       200        215     1         0.977188    3000.000000
       200        216     1         0.727372    3000.000000
       201        202     1         0.357130    3000.000000
       201        203     1         0.654050    3000.000000
       201        204     1         0.962408    3000.000000
       201        209     1         1.035612    3000.000000
       201        210     1         0.710601    3000.000000
       201        211     1         0.369099    3000.000000
       201        212     1         0.390288    3000.000000
       201        213     1         0.746170    3000.000000
       201        214     1         0.996681    3000.000000
       201        215     1         0.974973    3000.000000
       201        216     1         0.649186    3000.000000
       202        203     1         0.354330    3000.000000
       202        204     1         0.701116    3000.000000
       202        205     1         0.966764    3000.000000
       202        210     1         0.940677    3000.000000
       202        211     1         0.607954    3000.000000
       202        212     1         0.354484    3000.000000
       202        213     1         0.606101    3000.000000
       202        214     1         0.936328    3000.000000
       202        215     1         1.043341    3000.000000
       202        216     1         0.712310    3000.000000
       203        204     1         0.353543    3000.000000
       203        205     1         0.654991    3000.000000
       203        206     1         0.955488    3000.000000
       203        210     1         1.021055    3000.000000
       203        211     1         0.754889    3000.000000
       203        212     1         0.396773    3000.000000
       203        213     1         0.378851    3000.000000
       203        214     1         0.727970    3000.000000
       203        215     1         0.946980    3000.000000
       203        216     1         0.669788    3000.000000
       204        205     1         0.352814    3000.000000
       204        206     1         0.698981    3000.000000
       204        207     1         0.946565    3000.000000
       204        211     1         0.964719    3000.000000
       204        212     1         0.631737    3000.000000
       204        213     1         0.362559    3000.000000
       204        214     1         0.590407    3000.000000
       204        215     1         0.907093    3000.000000
       204        216     1         0.744616    3000.000000
       205        206     1         0.356292    3000.000000
       205        207     1         0.652473    3000.000000
       205        208     1         0.949329    3000.000000
       205        209     1         1.089445    3000.000000
       205        211     1         1.035707    3000.000000
       205        212     1         0.781720    3000.000000
       205        213     1         0.426484    3000.000000
       205        214     1         0.383496    3000.000000
       205        215     1         0.735504    3000.000000
       205        216     1         0.719703    3000.000000
       206        207     1         0.354876    3000.000000
       206        208     1         0.701657    3000.000000
       206        209     1         0.940656    3000.000000
       206        210     1         1.069764    3000.000000
       206        212     1         0.966345    3000.000000
       206        213     1         0.642838    3000.000000
       206        214     1         0.361138    3000.000000
       206        215     1         0.609890    3000.000000
       206        216     1         0.766549    3000.000000
       207        208     1         0.357272    3000.000000
       207        209     1         0.650510    3000.000000
       207        210     1         0.868671    3000.000000
       207        211     1         1.023673    3000.000000
       207        212     1         0.993626    3000.000000
       207        213     1         0.759179    3000.000000
       207        214     1         0.407671    3000.000000
       207        215     1         0.394222    3000.000000
       207        216     1         0.690849    3000.000000
       208        209     1         0.361198    3000.000000
       208        210     1         0.676424    3000.000000
       208        211     1         0.938250    3000.000000
       208        212     1         1.038436    3000.000000
       208        213     1         0.920554    3000.000000
       208        214     1         0.620931    3000.000000
       208        215     1         0.351625    3000.000000
       208        216     1         0.691962    3000.000000
       209        210     1         0.356153    3000.000000
       209        211     1         0.682748    3000.000000
       209        212     1         0.894860    3000.000000
       209        213     1         0.910733    3000.000000
       209        214     1         0.725382    3000.000000
       209        215     1         0.372677    3000.000000
       209        216     1         0.567784    3000.000000
       210        211     1         0.354370    3000.000000
       210        212     1         0.651912    3000.000000
       210        213     1         0.801193    3000.000000
       210        214     1         0.765646    3000.000000
       210        215     1         0.493235    3000.000000
       210        216     1         0.422935    3000.000000
       211        212     1         0.366283    3000.000000
       211        213     1         0.647477    3000.000000
       211        214     1         0.777001    3000.000000
       211        215     1         0.656583    3000.000000
       211        216     1         0.371341    3000.000000
       212        213     1         0.363303    3000.000000
       212        214     1         0.638925    3000.000000
       212        215     1         0.705670    3000.000000
       212        216     1         0.363485    3000.000000
       213        214     1         0.358781    3000.000000
       213        215     1         0.598681    3000.000000
       213        216     1         0.388464    3000.000000
       214        215     1         0.359036    3000.000000
       214        216     1         0.414820    3000.000000
       215        216     1         0.352027    3000.000000

[ constraints ]
;         i           j    funct      length
[ exclusions ]
1 36 37 38 39 40 41 42 43 44 45 46 47 48 49 50 51 52 53 54 55 56 57 58 59 60 61 62 63 64 65 66 67 68 69 70 71 72 73 74 75 76 77 78 79 80 81 82 83 84 85 86 87 88 89 90 91 92 93 94 95 96 97 98 99 100 101 102 103 104 105 106 107 108 109 110 111 112 113 114 115 116 117 118 119 120 121 122 123 124 125 126 127 128 129 130 131 132 133 134 135 136 137 138 139 140 141 142 143 144 145 146 147 148 149 150 151 152 153 154 155 156 157 158 159 160 161 162 163 164 165 166 167 168 169 170 171 172 173 174 175 176 177 178 179 180 181 182 183 184 185 186 187 188 189 190 191 192 193 194 195 196 197 198 199 200 201 202 203 204 205 206 207 208 209 210 211 212 213 214 215 216
2 27 28 29 30 31 32 33 34 35 42 43 44 45 46 47 48 49 50 51 52 53 54 55 56 57 58 59 60 61 62 63 64 65 66 67 68 69 70 71 72 73 74 75 76 77 78 79 80 81 82 83 84 85 86 87 88 89 90 91 92 93 94 95 96 97 98 99 100 101 102 103 104 105 106 107 108 109 110 111 112 113 114 115 116 117 118 119 120 121 122 123 124 125 126 127 128 129 130 131 132 133 134 135 136 137 138 139 140 141 142 143 144 145 146 147 148 149 150 151 152 153 154 155 156 157 158 159 160 161 162 163 164 165 166 167 168 169 170 171 172 173 174 175 176 177 178 179 180 181 182 183 184 185 186 187 188 189 190 191 192 193 194 195 196 197 198 199 200 201 202 203 204 205 206 207 208 209 210 211 212 213 214 215 216
3 17 18 30 31 32 33 34 35 36 37 38 39 40 46 47 48 49 50 51 52 53 54 55 56 57 58 59 60 61 62 63 64 65 66 67 68 69 70 71 72 73 74 75 76 77 78 79 80 81 82 83 84 85 86 87 88 89 90 91 92 93 94 95 96 97 98 99 100 101 102 103 104 105 106 107 108 109 110 111 112 113 114 115 116 117 118 119 120 121 122 123 124 125 126 127 128 129 130 131 132 133 134 135 136 137 138 139 140 141 142 143 144 145 146 147 148 149 150 151 152 153 154 155 156 157 158 159 160 161 162 163 164 165 166 167 168 169 170 171 172 173 174 175 176 177 178 179 180 181 182 183 184 185 186 187 188 189 190 191 192 193 194 195 196 197 198 199 200 201 202 203 204 205 206 207 208 209 210 211 212 213 214 215 216
4 19 20 21 22 33 34 35 36 37 38 39 40 41 42 43 44 50 51 52 53 54 55 56 57 58 59 60 61 62 63 64 65 66 67 68 69 70 71 72 73 74 75 76 77 78 79 80 81 82 83 84 85 86 87 88 89 90 91 92 93 94 95 96 97 98 99 100 101 102 103 104 105 106 107 108 109 110 111 112 113 114 115 116 117 118 119 120 121 122 123 124 125 126 127 128 129 130 131 132 133 134 135 136 137 138 139 140 141 142 143 144 145 146 147 148 149 150 151 152 153 154 155 156 157 158 159 160 161 162 163 164 165 166 167 168 169 170 171 172 173 174 175 176 177 178 179 180 181 182 183 184 185 186 187 188 189 190 191 192 193 194 195 196 197 198 199 200 201 202 203 204 205 206 207 208 209 210 211 212 213 214 215 216
5 20 21 22 23 24 25 35 36 37 38 39 40 41 42 43 44 45 46 47 53 54 55 56 57 58 59 60 61 62 63 64 65 66 67 68 69 70 71 72 73 74 75 76 77 78 79 80 81 82 83 84 85 86 87 88 89 90 91 92 93 94 95 96 97 98 99 100 101 102 103 104 105 106 107 108 109 110 111 112 113 114 115 116 117 118 119 120 121 122 123 124 125 126 127 128 129 130 131 132 133 134 135 136 137 138 139 140 141 142 143 144 145 146 147 148 149 150 151 152 153 154 155 156 157 158 159 160 161 162 163 164 165 166 167 168 169 170 171 172 173 174 175 176 177 178 179 180 181 182 183 184 185 186 187 188 189 190 191 192 193 194 195 196 197 198 199 200 201 202 203 204 205 206 207 208 209 210 211 212 213 214 215 216
6 11 22 23 24 25 26 27 28 37 38 39 40 41 42 43 44 45 46 47 48 49 50 56 57 58 59 60 61 62 63 64 65 66 67 68 69 70 71 72 73 74 75 76 77 78 79 80 81 82 83 84 85 86 87 88 89 90 91 92 93 94 95 96 97 98 99 100 101 102 103 104 105 106 107 108 109 110 111 112 113 114 115 116 117 118 119 120 121 122 123 124 125 126 127 128 129 130 131 132 133 134 135 136 137 138 139 140 141 142 143 144 145 146 147 148 149 150 151 152 153 154 155 156 157 158 159 160 161 162 163 164 165 166 167 168 169 170 171 172 173 174 175 176 177 178 179 180 181 182 183 184 185 186 187 188 189 190 191 192 193 194 195 196 197 198 199 200 201 202 203 204 205 206 207 208 209 210 211 212 213 214 215 216
7 12 13 23 24 25 26 27 28 29 30 39 40 41 42 43 44 45 46 47 48 49 50 51 52 53 58 59 60 61 62 63 64 65 66 67 68 69 70 71 72 73 74 75 76 77 78 79 80 81 82 83 84 85 86 87 88 89 90 91 92 93 94 95 96 97 98 99 100 101 102 103 104 105 106 107 108 109 110 111 112 113 114 115 116 117 118 119 120 121 122 123 124 125 126 127 128 129 130 131 132 133 134 135 136 137 138 139 140 141 142 143 144 145 146 147 148 149 150 151 152 153 154 155 156 157 158 159 160 161 162 163 164 165 166 167 168 169 170 171 172 173 174 175 176 177 178 179 180 181 182 183 184 185 186 187 188 189 190 191 192 193 194 195 196 197 198 199 200 201 202 203 204 205 206 207 208 209 210 211 212 213 214 215 216
8 13 14 15 25 26 27 28 29 30 31 32 33 41 42 43 44 45 46 47 48 49 50 51 52 53 54 55 61 62 63 64 65 66 67 68 69 70 71 72 73 74 75 76 77 78 79 80 81 82 83 84 85 86 87 88 89 90 91 92 93 94 95 96 97 98 99 100 101 102 103 104 105 106 107 108 109 110 111 112 113 114 115 116 117 118 119 120 121 122 123 124 125 126 127 128 129 130 131 132 133 134 135 136 137 138 139 140 141 142 143 144 145 146 147 148 149 150 151 152 153 154 155 156 157 158 159 160 161 162 163 164 165 166 167 168 169 170 171 172 173 174 175 176 177 178 179 180 181 182 183 184 185 186 187 188 189 190 191 192 193 194 195 196 197 198 199 200 201 202 203 204 205 206 207 208 209 210 211 212 213 214 215 216
9 13 14 15 16 17 26 27 28 29 30 31 32 33 34 35 43 44 45 46 47 48 49 50 51 52 53 54 55 56 57 58 63 64 65 66 67 68 69 70 71 72 73 74 75 76 77 78 79 80 81 82 83 84 85 86 87 88 89 90 91 92 93 94 95 96 97 98 99 100 101 102 103 104 105 106 107 108 109 110 111 112 113 114 115 116 117 118 119 120 121 122 123 124 125 126 127 128 129 130 131 132 133 134 135 136 137 138 139 140 141 142 143 144 145 146 147 148 149 150 151 152 153 154 155 156 157 158 159 160 161 162 163 164 165 166 167 168 169 170 171 172 173 174 175 176 177 178 179 180 181 182 183 184 185 186 187 188 189 190 191 192 193 194 195 196 197 198 199 200 201 202 203 204 205 206 207 208 209 210 211 212 213 214 215 216
10 14 15 16 17 18 28 29 30 31 32 33 34 35 36 37 45 46 47 48 49 50 51 52 53 54 55 56 57 58 59 60 65 66 67 68 69 70 71 72 73 74 75 76 77 78 79 80 81 82 83 84 85 86 87 88 89 90 91 92 93 94 95 96 97 98 99 100 101 102 103 104 105 106 107 108 109 110 111 112 113 114 115 116 117 118 119 120 121 122 123 124 125 126 127 128 129 130 131 132 133 134 135 136 137 138 139 140 141 142 143 144 145 146 147 148 149 150 151 152 153 154 155 156 157 158 159 160 161 162 163 164 165 166 167 168 169 170 171 172 173 174 175 176 177 178 179 180 181 182 183 184 185 186 187 188 189 190 191 192 193 194 195 196 197 198 199 200 201 202 203 204 205 206 207 208 209 210 211 212 213 214 215 216
11 6 15 16 17 18 19 20 29 30 31 32 33 34 35 36 37 38 39 47 48 49 50 51 52 53 54 55 56 57 58 59 60 61 62 67 68 69 70 71 72 73 74 75 76 77 78 79 80 81 82 83 84 85 86 87 88 89 90 91 92 93 94 95 96 97 98 99 100 101 102 103 104 105 106 107 108 109 110 111 112 113 114 115 116 117 118 119 120 121 122 123 124 125 126 127 128 129 130 131 132 133 134 135 136 137 138 139 140 141 142 143 144 145 146 147 148 149 150 151 152 153 154 155 156 157 158 159 160 161 162 163 164 165 166 167 168 169 170 171 172 173 174 175 176 177 178 179 180 181 182 183 184 185 186 187 188 189 190 191 192 193 194 195 196 197 198 199 200 201 202 203 204 205 206 207 208 209 210 211 212 213 214 215 216
12 7 16 17 18 19 20 21 22 30 31 32 33 34 35 36 37 38 39 40 41 49 50 51 52 53 54 55 56 57 58 59 60 61 62 63 64 65 69 70 71 72 73 74 75 76 77 78 79 80 81 82 83 84 85 86 87 88 89 90 91 92 93 94 95 96 97 98 99 100 101 102 103 104 105 106 107 108 109 110 111 112 113 114 115 116 117 118 119 120 121 122 123 124 125 126 127 128 129 130 131 132 133 134 135 136 137 138 139 140 141 142 143 144 145 146 147 148 149 150 151 152 153 154 155 156 157 158 159 160 161 162 163 164 165 166 167 168 169 170 171 172 173 174 175 176 177 178 179 180 181 182 183 184 185 186 187 188 189 190 191 192 193 194 195 196 197 198 199 200 201 202 203 204 205 206 207 208 209 210 211 212 213 214 215 216
13 7 8 9 17 18 19 20 21 22 23 32 33 34 35 36 37 38 39 40 41 42 43 50 51 52 53 54 55 56 57 58 59 60 61 62 63 64 65 66 67 72 73 74 75 76 77 78 79 80 81 82 83 84 85 86 87 88 89 90 91 92 93 94 95 96 97 98 99 100 101 102 103 104 105 106 107 108 109 110 111 112 113 114 115 116 117 118 119 120 121 122 123 124 125 126 127 128 129 130 131 132 133 134 135 136 137 138 139 140 141 142 143 144 145 146 147 148 149 150 151 152 153 154 155 156 157 158 159 160 161 162 163 164 165 166 167 168 169 170 171 172 173 174 175 176 177 178 179 180 181 182 183 184 185 186 187 188 189 190 191 192 193 194 195 196 197 198 199 200 201 202 203 204 205 206 207 208 209 210 211 212 213 214 215 216
14 8 9 10 18 19 20 21 22 23 24 25 33 34 35 36 37 38 39 40 41 42 43 44 52 53 54 55 56 57 58 59 60 61 62 63 64 65 66 67 68 69 73 74 75 76 77 78 79 80 81 82 83 84 85 86 87 88 89 90 91 92 93 94 95 96 97 98 99 100 101 102 103 104 105 106 107 108 109 110 111 112 113 114 115 116 117 118 119 120 121 122 123 124 125 126 127 128 129 130 131 132 133 134 135 136 137 138 139 140 141 142 143 144 145 146 147 148 149 150 151 152 153 154 155 156 157 158 159 160 161 162 163 164 165 166 167 168 169 170 171 172 173 174 175 176 177 178 179 180 181 182 183 184 185 186 187 188 189 190 191 192 193 194 195 196 197 198 199 200 201 202 203 204 205 206 207 208 209 210 211 212 213 214 215 216
15 8 9 10 11 19 20 21 22 23 24 25 26 34 35 36 37 38 39 40 41 42 43 44 45 46 54 55 56 57 58 59 60 61 62 63 64 65 66 67 68 69 70 75 76 77 78 79 80 81 82 83 84 85 86 87 88 89 90 91 92 93 94 95 96 97 98 99 100 101 102 103 104 105 106 107 108 109 110 111 112 113 114 115 116 117 118 119 120 121 122 123 124 125 126 127 128 129 130 131 132 133 134 135 136 137 138 139 140 141 142 143 144 145 146 147 148 149 150 151 152 153 154 155 156 157 158 159 160 161 162 163 164 165 166 167 168 169 170 171 172 173 174 175 176 177 178 179 180 181 182 183 184 185 186 187 188 189 190 191 192 193 194 195 196 197 198 199 200 201 202 203 204 205 206 207 208 209 210 211 212 213 214 215 216
16 9 10 11 12 20 21 22 23 24 25 26 27 36 37 38 39 40 41 42 43 44 45 46 47 48 55 56 57 58 59 60 61 62 63 64 65 66 67 68 69 70 71 72 73 76 77 78 79 80 81 82 83 84 85 86 87 88 89 90 91 92 93 94 95 96 97 98 99 100 101 102 103 104 105 106 107 108 109 110 111 112 113 114 115 116 117 118 119 120 121 122 123 124 125 126 127 128 129 130 131 132 133 134 135 136 137 138 139 140 141 142 143 144 145 146 147 148 149 150 151 152 153 154 155 156 157 158 159 160 161 162 163 164 165 166 167 168 169 170 171 172 173 174 175 176 177 178 179 180 181 182 183 184 185 186 187 188 189 190 191 192 193 194 195 196 197 198 199 200 201 202 203 204 205 206 207 208 209 210 211 212 213 214 215 216
17 3 9 10 11 12 13 21 22 23 24 25 26 27 28 29 37 38 39 40 41 42 43 44 45 46 47 48 49 57 58 59 60 61 62 63 64 65 66 67 68 69 70 71 72 73 74 79 80 81 82 83 84 85 86 87 88 89 90 91 92 93 94 95 96 97 98 99 100 101 102 103 104 105 106 107 108 109 110 111 112 113 114 115 116 117 118 119 120 121 122 123 124 125 126 127 128 129 130 131 132 133 134 135 136 137 138 139 140 141 142 143 144 145 146 147 148 149 150 151 152 153 154 155 156 157 158 159 160 161 162 163 164 165 166 167 168 169 170 171 172 173 174 175 176 177 178 179 180 181 182 183 184 185 186 187 188 189 190 191 192 193 194 195 196 197 198 199 200 201 202 203 204 205 206 207 208 209 210 211 212 213 214 215 216
18 3 10 11 12 13 14 22 23 24 25 26 27 28 29 30 38 39 40 41 42 43 44 45 46 47 48 49 50 51 58 59 60 61 62 63 64 65 66 67 68 69 70 71 72 73 74 75 76 80 81 82 83 84 85 86 87 88 89 90 91 92 93 94 95 96 97 98 99 100 101 102 103 104 105 106 107 108 109 110 111 112 113 114 115 116 117 118 119 120 121 122 123 124 125 126 127 128 129 130 131 132 133 134 135 136 137 138 139 140 141 142 143 144 145 146 147 148 149 150 151 152 153 154 155 156 157 158 159 160 161 162 163 164 165 166 167 168 169 170 171 172 173 174 175 176 177 178 179 180 181 182 183 184 185 186 187 188 189 190 191 192 193 194 195 196 197 198 199 200 201 202 203 204 205 206 207 208 209 210 211 212 213 214 215 216
19 4 11 12 13 14 15 23 24 25 26 27 28 29 30 31 40 41 42 43 44 45 46 47 48 49 50 51 52 53 60 61 62 63 64 65 66 67 68 69 70 71 72 73 74 75 76 77 78 82 83 84 85 86 87 88 89 90 91 92 93 94 95 96 97 98 99 100 101 102 103 104 105 106 107 108 109 110 111 112 113 114 115 116 117 118 119 120 121 122 123 124 125 126 127 128 129 130 131 132 133 134 135 136 137 138 139 140 141 142 143 144 145 146 147 148 149 150 151 152 153 154 155 156 157 158 159 160 161 162 163 164 165 166 167 168 169 170 171 172 173 174 175 176 177 178 179 180 181 182 183 184 185 186 187 188 189 190 191 192 193 194 195 196 197 198 199 200 201 202 203 204 205 206 207 208 209 210 211 212 213 214 215 216
20 4 5 11 12 13 14 15 16 24 25 26 27 28 29 30 31 32 33 41 42 43 44 45 46 47 48 49 50 51 52 53 54 62 63 64 65 66 67 68 69 70 71 72 73 74 75 76 77 78 79 84 85 86 87 88 89 90 91 92 93 94 95 96 97 98 99 100 101 102 103 104 105 106 107 108 109 110 111 112 113 114 115 116 117 118 119 120 121 122 123 124 125 126 127 128 129 130 131 132 133 134 135 136 137 138 139 140 141 142 143 144 145 146 147 148 149 150 151 152 153 154 155 156 157 158 159 160 161 162 163 164 165 166 167 168 169 170 171 172 173 174 175 176 177 178 179 180 181 182 183 184 185 186 187 188 189 190 191 192 193 194 195 196 197 198 199 200 201 202 203 204 205 206 207 208 209 210 211 212 213 214 215 216
21 4 5 12 13 14 15 16 17 25 26 27 28 29 30 31 32 33 34 42 43 44 45 46 47 48 49 50 51 52 53 54 55 56 63 64 65 66 67 68 69 70 71 72 73 74 75 76 77 78 79 80 81 86 87 88 89 90 91 92 93 94 95 96 97 98 99 100 101 102 103 104 105 106 107 108 109 110 111 112 113 114 115 116 117 118 119 120 121 122 123 124 125 126 127 128 129 130 131 132 133 134 135 136 137 138 139 140 141 142 143 144 145 146 147 148 149 150 151 152 153 154 155 156 157 158 159 160 161 162 163 164 165 166 167 168 169 170 171 172 173 174 175 176 177 178 179 180 181 182 183 184 185 186 187 188 189 190 191 192 193 194 195 196 197 198 199 200 201 202 203 204 205 206 207 208 209 210 211 212 213 214 215 216
22 4 5 6 12 13 14 15 16 17 18 26 27 28 29 30 31 32 33 34 35 36 44 45 46 47 48 49 50 51 52 53 54 55 56 57 58 65 66 67 68 69 70 71 72 73 74 75 76 77 78 79 80 81 82 83 87 88 89 90 91 92 93 94 95 96 97 98 99 100 101 102 103 104 105 106 107 108 109 110 111 112 113 114 115 116 117 118 119 120 121 122 123 124 125 126 127 128 129 130 131 132 133 134 135 136 137 138 139 140 141 142 143 144 145 146 147 148 149 150 151 152 153 154 155 156 157 158 159 160 161 162 163 164 165 166 167 168 169 170 171 172 173 174 175 176 177 178 179 180 181 182 183 184 185 186 187 188 189 190 191 192 193 194 195 196 197 198 199 200 201 202 203 204 205 206 207 208 209 210 211 212 213 214 215 216
23 5 6 7 13 14 15 16 17 18 19 27 28 29 30 31 32 33 34 35 36 37 45 46 47 48 49 50 51 52 53 54 55 56 57 58 59 66 67 68 69 70 71 72 73 74 75 76 77 78 79 80 81 82 83 84 85 89 90 91 92 93 94 95 96 97 98 99 100 101 102 103 104 105 106 107 108 109 110 111 112 113 114 115 116 117 118 119 120 121 122 123 124 125 126 127 128 129 130 131 132 133 134 135 136 137 138 139 140 141 142 143 144 145 146 147 148 149 150 151 152 153 154 155 156 157 158 159 160 161 162 163 164 165 166 167 168 169 170 171 172 173 174 175 176 177 178 179 180 181 182 183 184 185 186 187 188 189 190 191 192 193 194 195 196 197 198 199 200 201 202 203 204 205 206 207 208 209 210 211 212 213 214 215 216
24 5 6 7 14 15 16 17 18 19 20 28 29 30 31 32 33 34 35 36 37 38 46 47 48 49 50 51 52 53 54 55 56 57 58 59 60 68 69 70 71 72 73 74 75 76 77 78 79 80 81 82 83 84 85 86 91 92 93 94 95 96 97 98 99 100 101 102 103 104 105 106 107 108 109 110 111 112 113 114 115 116 117 118 119 120 121 122 123 124 125 126 127 128 129 130 131 132 133 134 135 136 137 138 139 140 141 142 143 144 145 146 147 148 149 150 151 152 153 154 155 156 157 158 159 160 161 162 163 164 165 166 167 168 169 170 171 172 173 174 175 176 177 178 179 180 181 182 183 184 185 186 187 188 189 190 191 192 193 194 195 196 197 198 199 200 201 202 203 204 205 206 207 208 209 210 211 212 213 214 215 216
25 5 6 7 8 14 15 16 17 18 19 20 21 29 30 31 32 33 34 35 36 37 38 39 47 48 49 50 51 52 53 54 55 56 57 58 59 60 61 62 69 70 71 72 73 74 75 76 77 78 79 80 81 82 83 84 85 86 87 88 92 93 94 95 96 97 98 99 100 101 102 103 104 105 106 107 108 109 110 111 112 113 114 115 116 117 118 119 120 121 122 123 124 125 126 127 128 129 130 131 132 133 134 135 136 137 138 139 140 141 142 143 144 145 146 147 148 149 150 151 152 153 154 155 156 157 158 159 160 161 162 163 164 165 166 167 168 169 170 171 172 173 174 175 176 177 178 179 180 181 182 183 184 185 186 187 188 189 190 191 192 193 194 195 196 197 198 199 200 201 202 203 204 205 206 207 208 209 210 211 212 213 214 215 216
26 6 7 8 9 15 16 17 18 19 20 21 22 30 31 32 33 34 35 36 37 38 39 40 41 49 50 51 52 53 54 55 56 57 58 59 60 61 62 63 70 71 72 73 74 75 76 77 78 79 80 81 82 83 84 85 86 87 88 89 94 95 96 97 98 99 100 101 102 103 104 105 106 107 108 109 110 111 112 113 114 115 116 117 118 119 120 121 122 123 124 125 126 127 128 129 130 131 132 133 134 135 136 137 138 139 140 141 142 143 144 145 146 147 148 149 150 151 152 153 154 155 156 157 158 159 160 161 162 163 164 165 166 167 168 169 170 171 172 173 174 175 176 177 178 179 180 181 182 183 184 185 186 187 188 189 190 191 192 193 194 195 196 197 198 199 200 201 202 203 204 205 206 207 208 209 210 211 212 213 214 215 216
27 2 6 7 8 9 16 17 18 19 20 21 22 23 31 32 33 34 35 36 37 38 39 40 41 42 50 51 52 53 54 55 56 57 58 59 60 61 62 63 64 65 72 73 74 75 76 77 78 79 80 81 82 83 84 85 86 87 88 89 90 91 95 96 97 98 99 100 101 102 103 104 105 106 107 108 109 110 111 112 113 114 115 116 117 118 119 120 121 122 123 124 125 126 127 128 129 130 131 132 133 134 135 136 137 138 139 140 141 142 143 144 145 146 147 148 149 150 151 152 153 154 155 156 157 158 159 160 161 162 163 164 165 166 167 168 169 170 171 172 173 174 175 176 177 178 179 180 181 182 183 184 185 186 187 188 189 190 191 192 193 194 195 196 197 198 199 200 201 202 203 204 205 206 207 208 209 210 211 212 213 214 215 216
28 2 6 7 8 9 10 17 18 19 20 21 22 23 24 32 33 34 35 36 37 38 39 40 41 42 43 51 52 53 54 55 56 57 58 59 60 61 62 63 64 65 66 73 74 75 76 77 78 79 80 81 82 83 84 85 86 87 88 89 90 91 92 97 98 99 100 101 102 103 104 105 106 107 108 109 110 111 112 113 114 115 116 117 118 119 120 121 122 123 124 125 126 127 128 129 130 131 132 133 134 135 136 137 138 139 140 141 142 143 144 145 146 147 148 149 150 151 152 153 154 155 156 157 158 159 160 161 162 163 164 165 166 167 168 169 170 171 172 173 174 175 176 177 178 179 180 181 182 183 184 185 186 187 188 189 190 191 192 193 194 195 196 197 198 199 200 201 202 203 204 205 206 207 208 209 210 211 212 213 214 215 216
29 2 7 8 9 10 11 17 18 19 20 21 22 23 24 25 33 34 35 36 37 38 39 40 41 42 43 44 52 53 54 55 56 57 58 59 60 61 62 63 64 65 66 67 68 75 76 77 78 79 80 81 82 83 84 85 86 87 88 89 90 91 92 93 94 98 99 100 101 102 103 104 105 106 107 108 109 110 111 112 113 114 115 116 117 118 119 120 121 122 123 124 125 126 127 128 129 130 131 132 133 134 135 136 137 138 139 140 141 142 143 144 145 146 147 148 149 150 151 152 153 154 155 156 157 158 159 160 161 162 163 164 165 166 167 168 169 170 171 172 173 174 175 176 177 178 179 180 181 182 183 184 185 186 187 188 189 190 191 192 193 194 195 196 197 198 199 200 201 202 203 204 205 206 207 208 209 210 211 212 213 214 215 216
30 2 3 7 8 9 10 11 12 18 19 20 21 22 23 24 25 26 34 35 36 37 38 39 40 41 42 43 44 45 46 53 54 55 56 57 58 59 60 61 62 63 64 65 66 67 68 69 76 77 78 79 80 81 82 83 84 85 86 87 88 89 90 91 92 93 94 95 100 101 102 103 104 105 106 107 108 109 110 111 112 113 114 115 116 117 118 119 120 121 122 123 124 125 126 127 128 129 130 131 132 133 134 135 136 137 138 139 140 141 142 143 144 145 146 147 148 149 150 151 152 153 154 155 156 157 158 159 160 161 162 163 164 165 166 167 168 169 170 171 172 173 174 175 176 177 178 179 180 181 182 183 184 185 186 187 188 189 190 191 192 193 194 195 196 197 198 199 200 201 202 203 204 205 206 207 208 209 210 211 212 213 214 215 216
31 2 3 8 9 10 11 12 19 20 21 22 23 24 25 26 27 35 36 37 38 39 40 41 42 43 44 45 46 47 55 56 57 58 59 60 61 62 63 64 65 66 67 68 69 70 77 78 79 80 81 82 83 84 85 86 87 88 89 90 91 92 93 94 95 96 97 101 102 103 104 105 106 107 108 109 110 111 112 113 114 115 116 117 118 119 120 121 122 123 124 125 126 127 128 129 130 131 132 133 134 135 136 137 138 139 140 141 142 143 144 145 146 147 148 149 150 151 152 153 154 155 156 157 158 159 160 161 162 163 164 165 166 167 168 169 170 171 172 173 174 175 176 177 178 179 180 181 182 183 184 185 186 187 188 189 190 191 192 193 194 195 196 197 198 199 200 201 202 203 204 205 206 207 208 209 210 211 212 213 214 215 216
32 2 3 8 9 10 11 12 13 20 21 22 23 24 25 26 27 28 36 37 38 39 40 41 42 43 44 45 46 47 48 56 57 58 59 60 61 62 63 64 65 66 67 68 69 70 71 72 79 80 81 82 83 84 85 86 87 88 89 90 91 92 93 94 95 96 97 98 99 102 103 104 105 106 107 108 109 110 111 112 113 114 115 116 117 118 119 120 121 122 123 124 125 126 127 128 129 130 131 132 133 134 135 136 137 138 139 140 141 142 143 144 145 146 147 148 149 150 151 152 153 154 155 156 157 158 159 160 161 162 163 164 165 166 167 168 169 170 171 172 173 174 175 176 177 178 179 180 181 182 183 184 185 186 187 188 189 190 191 192 193 194 195 196 197 198 199 200 201 202 203 204 205 206 207 208 209 210 211 212 213 214 215 216
33 2 3 4 8 9 10 11 12 13 14 20 21 22 23 24 25 26 27 28 29 37 38 39 40 41 42 43 44 45 46 47 48 49 57 58 59 60 61 62 63 64 65 66 67 68 69 70 71 72 73 80 81 82 83 84 85 86 87 88 89 90 91 92 93 94 95 96 97 98 99 100 104 105 106 107 108 109 110 111 112 113 114 115 116 117 118 119 120 121 122 123 124 125 126 127 128 129 130 131 132 133 134 135 136 137 138 139 140 141 142 143 144 145 146 147 148 149 150 151 152 153 154 155 156 157 158 159 160 161 162 163 164 165 166 167 168 169 170 171 172 173 174 175 176 177 178 179 180 181 182 183 184 185 186 187 188 189 190 191 192 193 194 195 196 197 198 199 200 201 202 203 204 205 206 207 208 209 210 211 212 213 214 215 216
34 2 3 4 9 10 11 12 13 14 15 21 22 23 24 25 26 27 28 29 30 38 39 40 41 42 43 44 45 46 47 48 49 50 58 59 60 61 62 63 64 65 66 67 68 69 70 71 72 73 74 75 81 82 83 84 85 86 87 88 89 90 91 92 93 94 95 96 97 98 99 100 101 105 106 107 108 109 110 111 112 113 114 115 116 117 118 119 120 121 122 123 124 125 126 127 128 129 130 131 132 133 134 135 136 137 138 139 140 141 142 143 144 145 146 147 148 149 150 151 152 153 154 155 156 157 158 159 160 161 162 163 164 165 166 167 168 169 170 171 172 173 174 175 176 177 178 179 180 181 182 183 184 185 186 187 188 189 190 191 192 193 194 195 196 197 198 199 200 201 202 203 204 205 206 207 208 209 210 211 212 213 214 215 216
35 2 3 4 5 9 10 11 12 13 14 15 22 23 24 25 26 27 28 29 30 31 39 40 41 42 43 44 45 46 47 48 49 50 51 52 60 61 62 63 64 65 66 67 68 69 70 71 72 73 74 75 76 82 83 84 85 86 87 88 89 90 91 92 93 94 95 96 97 98 99 100 101 102 103 106 107 108 109 110 111 112 113 114 115 116 117 118 119 120 121 122 123 124 125 126 127 128 129 130 131 132 133 134 135 136 137 138 139 140 141 142 143 144 145 146 147 148 149 150 151 152 153 154 155 156 157 158 159 160 161 162 163 164 165 166 167 168 169 170 171 172 173 174 175 176 177 178 179 180 181 182 183 184 185 186 187 188 189 190 191 192 193 194 195 196 197 198 199 200 201 202 203 204 205 206 207 208 209 210 211 212 213 214 215 216
36 1 3 4 5 10 11 12 13 14 15 16 22 23 24 25 26 27 28 29 30 31 32 40 41 42 43 44 45 46 47 48 49 50 51 52 53 61 62 63 64 65 66 67 68 69 70 71 72 73 74 75 76 77 84 85 86 87 88 89 90 91 92 93 94 95 96 97 98 99 100 101 102 103 104 108 109 110 111 112 113 114 115 116 117 118 119 120 121 122 123 124 125 126 127 128 129 130 131 132 133 134 135 136 137 138 139 140 141 142 143 144 145 146 147 148 149 150 151 152 153 154 155 156 157 158 159 160 161 162 163 164 165 166 167 168 169 170 171 172 173 174 175 176 177 178 179 180 181 182 183 184 185 186 187 188 189 190 191 192 193 194 195 196 197 198 199 200 201 202 203 204 205 206 207 208 209 210 211 212 213 214 215 216
37 1 3 4 5 6 10 11 12 13 14 15 16 17 23 24 25 26 27 28 29 30 31 32 33 41 42 43 44 45 46 47 48 49 50 51 52 53 54 62 63 64 65 66 67 68 69 70 71 72 73 74 75 76 77 78 85 86 87 88 89 90 91 92 93 94 95 96 97 98 99 100 101 102 103 104 105 109 110 111 112 113 114 115 116 117 118 119 120 121 122 123 124 125 126 127 128 129 130 131 132 133 134 135 136 137 138 139 140 141 142 143 144 145 146 147 148 149 150 151 152 153 154 155 156 157 158 159 160 161 162 163 164 165 166 167 168 169 170 171 172 173 174 175 176 177 178 179 180 181 182 183 184 185 186 187 188 189 190 191 192 193 194 195 196 197 198 199 200 201 202 203 204 205 206 207 208 209 210 211 212 213 214 215 216
38 1 3 4 5 6 11 12 13 14 15 16 17 18 24 25 26 27 28 29 30 31 32 33 34 42 43 44 45 46 47 48 49 50 51 52 53 54 55 63 64 65 66 67 68 69 70 71 72 73 74 75 76 77 78 79 80 86 87 88 89 90 91 92 93 94 95 96 97 98 99 100 101 102 103 104 105 106 107 111 112 113 114 115 116 117 118 119 120 121 122 123 124 125 126 127 128 129 130 131 132 133 134 135 136 137 138 139 140 141 142 143 144 145 146 147 148 149 150 151 152 153 154 155 156 157 158 159 160 161 162 163 164 165 166 167 168 169 170 171 172 173 174 175 176 177 178 179 180 181 182 183 184 185 186 187 188 189 190 191 192 193 194 195 196 197 198 199 200 201 202 203 204 205 206 207 208 209 210 211 212 213 214 215 216
39 1 3 4 5 6 7 11 12 13 14 15 16 17 18 25 26 27 28 29 30 31 32 33 34 35 43 44 45 46 47 48 49 50 51 52 53 54 55 56 57 64 65 66 67 68 69 70 71 72 73 74 75 76 77 78 79 80 81 88 89 90 91 92 93 94 95 96 97 98 99 100 101 102 103 104 105 106 107 108 112 113 114 115 116 117 118 119 120 121 122 123 124 125 126 127 128 129 130 131 132 133 134 135 136 137 138 139 140 141 142 143 144 145 146 147 148 149 150 151 152 153 154 155 156 157 158 159 160 161 162 163 164 165 166 167 168 169 170 171 172 173 174 175 176 177 178 179 180 181 182 183 184 185 186 187 188 189 190 191 192 193 194 195 196 197 198 199 200 201 202 203 204 205 206 207 208 209 210 211 212 213 214 215 216
40 1 3 4 5 6 7 12 13 14 15 16 17 18 19 26 27 28 29 30 31 32 33 34 35 36 44 45 46 47 48 49 50 51 52 53 54 55 56 57 58 65 66 67 68 69 70 71 72 73 74 75 76 77 78 79 80 81 82 89 90 91 92 93 94 95 96 97 98 99 100 101 102 103 104 105 106 107 108 109 113 114 115 116 117 118 119 120 121 122 123 124 125 126 127 128 129 130 131 132 133 134 135 136 137 138 139 140 141 142 143 144 145 146 147 148 149 150 151 152 153 154 155 156 157 158 159 160 161 162 163 164 165 166 167 168 169 170 171 172 173 174 175 176 177 178 179 180 181 182 183 184 185 186 187 188 189 190 191 192 193 194 195 196 197 198 199 200 201 202 203 204 205 206 207 208 209 210 211 212 213 214 215 216
41 1 4 5 6 7 8 12 13 14 15 16 17 18 19 20 26 27 28 29 30 31 32 33 34 35 36 37 45 46 47 48 49 50 51 52 53 54 55 56 57 58 59 66 67 68 69 70 71 72 73 74 75 76 77 78 79 80 81 82 83 90 91 92 93 94 95 96 97 98 99 100 101 102 103 104 105 106 107 108 109 110 114 115 116 117 118 119 120 121 122 123 124 125 126 127 128 129 130 131 132 133 134 135 136 137 138 139 140 141 142 143 144 145 146 147 148 149 150 151 152 153 154 155 156 157 158 159 160 161 162 163 164 165 166 167 168 169 170 171 172 173 174 175 176 177 178 179 180 181 182 183 184 185 186 187 188 189 190 191 192 193 194 195 196 197 198 199 200 201 202 203 204 205 206 207 208 209 210 211 212 213 214 215 216
42 1 2 4 5 6 7 8 13 14 15 16 17 18 19 20 21 27 28 29 30 31 32 33 34 35 36 37 38 46 47 48 49 50 51 52 53 54 55 56 57 58 59 60 68 69 70 71 72 73 74 75 76 77 78 79 80 81 82 83 84 85 92 93 94 95 96 97 98 99 100 101 102 103 104 105 106 107 108 109 110 111 112 116 117 118 119 120 121 122 123 124 125 126 127 128 129 130 131 132 133 134 135 136 137 138 139 140 141 142 143 144 145 146 147 148 149 150 151 152 153 154 155 156 157 158 159 160 161 162 163 164 165 166 167 168 169 170 171 172 173 174 175 176 177 178 179 180 181 182 183 184 185 186 187 188 189 190 191 192 193 194 195 196 197 198 199 200 201 202 203 204 205 206 207 208 209 210 211 212 213 214 215 216
43 1 2 4 5 6 7 8 9 13 14 15 16 17 18 19 20 21 28 29 30 31 32 33 34 35 36 37 38 39 47 48 49 50 51 52 53 54 55 56 57 58 59 60 61 69 70 71 72 73 74 75 76 77 78 79 80 81 82 83 84 85 86 93 94 95 96 97 98 99 100 101 102 103 104 105 106 107 108 109 110 111 112 113 117 118 119 120 121 122 123 124 125 126 127 128 129 130 131 132 133 134 135 136 137 138 139 140 141 142 143 144 145 146 147 148 149 150 151 152 153 154 155 156 157 158 159 160 161 162 163 164 165 166 167 168 169 170 171 172 173 174 175 176 177 178 179 180 181 182 183 184 185 186 187 188 189 190 191 192 193 194 195 196 197 198 199 200 201 202 203 204 205 206 207 208 209 210 211 212 213 214 215 216
44 1 2 4 5 6 7 8 9 14 15 16 17 18 19 20 21 22 29 30 31 32 33 34 35 36 37 38 39 40 48 49 50 51 52 53 54 55 56 57 58 59 60 61 62 70 71 72 73 74 75 76 77 78 79 80 81 82 83 84 85 86 87 94 95 96 97 98 99 100 101 102 103 104 105 106 107 108 109 110 111 112 113 114 118 119 120 121 122 123 124 125 126 127 128 129 130 131 132 133 134 135 136 137 138 139 140 141 142 143 144 145 146 147 148 149 150 151 152 153 154 155 156 157 158 159 160 161 162 163 164 165 166 167 168 169 170 171 172 173 174 175 176 177 178 179 180 181 182 183 184 185 186 187 188 189 190 191 192 193 194 195 196 197 198 199 200 201 202 203 204 205 206 207 208 209 210 211 212 213 214 215 216
45 1 2 5 6 7 8 9 10 15 16 17 18 19 20 21 22 23 30 31 32 33 34 35 36 37 38 39 40 41 49 50 51 52 53 54 55 56 57 58 59 60 61 62 63 64 71 72 73 74 75 76 77 78 79 80 81 82 83 84 85 86 87 88 89 95 96 97 98 99 100 101 102 103 104 105 106 107 108 109 110 111 112 113 114 115 120 121 122 123 124 125 126 127 128 129 130 131 132 133 134 135 136 137 138 139 140 141 142 143 144 145 146 147 148 149 150 151 152 153 154 155 156 157 158 159 160 161 162 163 164 165 166 167 168 169 170 171 172 173 174 175 176 177 178 179 180 181 182 183 184 185 186 187 188 189 190 191 192 193 194 195 196 197 198 199 200 201 202 203 204 205 206 207 208 209 210 211 212 213 214 215 216
46 1 2 3 5 6 7 8 9 10 15 16 17 18 19 20 21 22 23 24 30 31 32 33 34 35 36 37 38 39 40 41 42 50 51 52 53 54 55 56 57 58 59 60 61 62 63 64 65 72 73 74 75 76 77 78 79 80 81 82 83 84 85 86 87 88 89 90 96 97 98 99 100 101 102 103 104 105 106 107 108 109 110 111 112 113 114 115 116 121 122 123 124 125 126 127 128 129 130 131 132 133 134 135 136 137 138 139 140 141 142 143 144 145 146 147 148 149 150 151 152 153 154 155 156 157 158 159 160 161 162 163 164 165 166 167 168 169 170 171 172 173 174 175 176 177 178 179 180 181 182 183 184 185 186 187 188 189 190 191 192 193 194 195 196 197 198 199 200 201 202 203 204 205 206 207 208 209 210 211 212 213 214 215 216
47 1 2 3 5 6 7 8 9 10 11 16 17 18 19 20 21 22 23 24 25 31 32 33 34 35 36 37 38 39 40 41 42 43 51 52 53 54 55 56 57 58 59 60 61 62 63 64 65 66 73 74 75 76 77 78 79 80 81 82 83 84 85 86 87 88 89 90 91 98 99 100 101 102 103 104 105 106 107 108 109 110 111 112 113 114 115 116 117 118 122 123 124 125 126 127 128 129 130 131 132 133 134 135 136 137 138 139 140 141 142 143 144 145 146 147 148 149 150 151 152 153 154 155 156 157 158 159 160 161 162 163 164 165 166 167 168 169 170 171 172 173 174 175 176 177 178 179 180 181 182 183 184 185 186 187 188 189 190 191 192 193 194 195 196 197 198 199 200 201 202 203 204 205 206 207 208 209 210 211 212 213 214 215 216
48 1 2 3 6 7 8 9 10 11 16 17 18 19 20 21 22 23 24 25 32 33 34 35 36 37 38 39 40 41 42 43 44 52 53 54 55 56 57 58 59 60 61 62 63 64 65 66 67 74 75 76 77 78 79 80 81 82 83 84 85 86 87 88 89 90 91 92 99 100 101 102 103 104 105 106 107 108 109 110 111 112 113 114 115 116 117 118 119 123 124 125 126 127 128 129 130 131 132 133 134 135 136 137 138 139 140 141 142 143 144 145 146 147 148 149 150 151 152 153 154 155 156 157 158 159 160 161 162 163 164 165 166 167 168 169 170 171 172 173 174 175 176 177 178 179 180 181 182 183 184 185 186 187 188 189 190 191 192 193 194 195 196 197 198 199 200 201 202 203 204 205 206 207 208 209 210 211 212 213 214 215 216
49 1 2 3 6 7 8 9 10 11 12 17 18 19 20 21 22 23 24 25 26 33 34 35 36 37 38 39 40 41 42 43 44 45 53 54 55 56 57 58 59 60 61 62 63 64 65 66 67 68 76 77 78 79 80 81 82 83 84 85 86 87 88 89 90 91 92 93 100 101 102 103 104 105 106 107 108 109 110 111 112 113 114 115 116 117 118 119 120 124 125 126 127 128 129 130 131 132 133 134 135 136 137 138 139 140 141 142 143 144 145 146 147 148 149 150 151 152 153 154 155 156 157 158 159 160 161 162 163 164 165 166 167 168 169 170 171 172 173 174 175 176 177 178 179 180 181 182 183 184 185 186 187 188 189 190 191 192 193 194 195 196 197 198 199 200 201 202 203 204 205 206 207 208 209 210 211 212 213 214 215 216
50 1 2 3 4 6 7 8 9 10 11 12 13 18 19 20 21 22 23 24 25 26 27 34 35 36 37 38 39 40 41 42 43 44 45 46 54 55 56 57 58 59 60 61 62 63 64 65 66 67 68 69 77 78 79 80 81 82 83 84 85 86 87 88 89 90 91 92 93 94 95 101 102 103 104 105 106 107 108 109 110 111 112 113 114 115 116 117 118 119 120 121 122 125 126 127 128 129 130 131 132 133 134 135 136 137 138 139 140 141 142 143 144 145 146 147 148 149 150 151 152 153 154 155 156 157 158 159 160 161 162 163 164 165 166 167 168 169 170 171 172 173 174 175 176 177 178 179 180 181 182 183 184 185 186 187 188 189 190 191 192 193 194 195 196 197 198 199 200 201 202 203 204 205 206 207 208 209 210 211 212 213 214 215 216
51 1 2 3 4 7 8 9 10 11 12 13 18 19 20 21 22 23 24 25 26 27 28 35 36 37 38 39 40 41 42 43 44 45 46 47 55 56 57 58 59 60 61 62 63 64 65 66 67 68 69 70 78 79 80 81 82 83 84 85 86 87 88 89 90 91 92 93 94 95 96 102 103 104 105 106 107 108 109 110 111 112 113 114 115 116 117 118 119 120 121 122 123 126 127 128 129 130 131 132 133 134 135 136 137 138 139 140 141 142 143 144 145 146 147 148 149 150 151 152 153 154 155 156 157 158 159 160 161 162 163 164 165 166 167 168 169 170 171 172 173 174 175 176 177 178 179 180 181 182 183 184 185 186 187 188 189 190 191 192 193 194 195 196 197 198 199 200 201 202 203 204 205 206 207 208 209 210 211 212 213 214 215 216
52 1 2 3 4 7 8 9 10 11 12 13 14 19 20 21 22 23 24 25 26 27 28 29 35 36 37 38 39 40 41 42 43 44 45 46 47 48 56 57 58 59 60 61 62 63 64 65 66 67 68 69 70 71 72 79 80 81 82 83 84 85 86 87 88 89 90 91 92 93 94 95 96 97 104 105 106 107 108 109 110 111 112 113 114 115 116 117 118 119 120 121 122 123 124 128 129 130 131 132 133 134 135 136 137 138 139 140 141 142 143 144 145 146 147 148 149 150 151 152 153 154 155 156 157 158 159 160 161 162 163 164 165 166 167 168 169 170 171 172 173 174 175 176 177 178 179 180 181 182 183 184 185 186 187 188 189 190 191 192 193 194 195 196 197 198 199 200 201 202 203 204 205 206 207 208 209 210 211 212 213 214 215 216
53 1 2 3 4 5 7 8 9 10 11 12 13 14 19 20 21 22 23 24 25 26 27 28 29 30 36 37 38 39 40 41 42 43 44 45 46 47 48 49 57 58 59 60 61 62 63 64 65 66 67 68 69 70 71 72 73 80 81 82 83 84 85 86 87 88 89 90 91 92 93 94 95 96 97 98 105 106 107 108 109 110 111 112 113 114 115 116 117 118 119 120 121 122 123 124 125 129 130 131 132 133 134 135 136 137 138 139 140 141 142 143 144 145 146 147 148 149 150 151 152 153 154 155 156 157 158 159 160 161 162 163 164 165 166 167 168 169 170 171 172 173 174 175 176 177 178 179 180 181 182 183 184 185 186 187 188 189 190 191 192 193 194 195 196 197 198 199 200 201 202 203 204 205 206 207 208 209 210 211 212 213 214 215 216
54 1 2 3 4 5 8 9 10 11 12 13 14 15 20 21 22 23 24 25 26 27 28 29 30 37 38 39 40 41 42 43 44 45 46 47 48 49 50 58 59 60 61 62 63 64 65 66 67 68 69 70 71 72 73 74 81 82 83 84 85 86 87 88 89 90 91 92 93 94 95 96 97 98 99 100 106 107 108 109 110 111 112 113 114 115 116 117 118 119 120 121 122 123 124 125 126 130 131 132 133 134 135 136 137 138 139 140 141 142 143 144 145 146 147 148 149 150 151 152 153 154 155 156 157 158 159 160 161 162 163 164 165 166 167 168 169 170 171 172 173 174 175 176 177 178 179 180 181 182 183 184 185 186 187 188 189 190 191 192 193 194 195 196 197 198 199 200 201 202 203 204 205 206 207 208 209 210 211 212 213 214 215 216
55 1 2 3 4 5 8 9 10 11 12 13 14 15 16 21 22 23 24 25 26 27 28 29 30 31 38 39 40 41 42 43 44 45 46 47 48 49 50 51 59 60 61 62 63 64 65 66 67 68 69 70 71 72 73 74 75 82 83 84 85 86 87 88 89 90 91 92 93 94 95 96 97 98 99 100 101 107 108 109 110 111 112 113 114 115 116 117 118 119 120 121 122 123 124 125 126 127 131 132 133 134 135 136 137 138 139 140 141 142 143 144 145 146 147 148 149 150 151 152 153 154 155 156 157 158 159 160 161 162 163 164 165 166 167 168 169 170 171 172 173 174 175 176 177 178 179 180 181 182 183 184 185 186 187 188 189 190 191 192 193 194 195 196 197 198 199 200 201 202 203 204 205 206 207 208 209 210 211 212 213 214 215 216
56 1 2 3 4 5 6 9 10 11 12 13 14 15 16 21 22 23 24 25 26 27 28 29 30 31 32 39 40 41 42 43 44 45 46 47 48 49 50 51 52 60 61 62 63 64 65 66 67 68 69 70 71 72 73 74 75 76 83 84 85 86 87 88 89 90 91 92 93 94 95 96 97 98 99 100 101 102 108 109 110 111 112 113 114 115 116 117 118 119 120 121 122 123 124 125 126 127 128 132 133 134 135 136 137 138 139 140 141 142 143 144 145 146 147 148 149 150 151 152 153 154 155 156 157 158 159 160 161 162 163 164 165 166 167 168 169 170 171 172 173 174 175 176 177 178 179 180 181 182 183 184 185 186 187 188 189 190 191 192 193 194 195 196 197 198 199 200 201 202 203 204 205 206 207 208 209 210 211 212 213 214 215 216
57 1 2 3 4 5 6 9 10 11 12 13 14 15 16 17 22 23 24 25 26 27 28 29 30 31 32 33 39 40 41 42 43 44 45 46 47 48 49 50 51 52 53 61 62 63 64 65 66 67 68 69 70 71 72 73 74 75 76 77 84 85 86 87 88 89 90 91 92 93 94 95 96 97 98 99 100 101 102 103 109 110 111 112 113 114 115 116 117 118 119 120 121 122 123 124 125 126 127 128 129 134 135 136 137 138 139 140 141 142 143 144 145 146 147 148 149 150 151 152 153 154 155 156 157 158 159 160 161 162 163 164 165 166 167 168 169 170 171 172 173 174 175 176 177 178 179 180 181 182 183 184 185 186 187 188 189 190 191 192 193 194 195 196 197 198 199 200 201 202 203 204 205 206 207 208 209 210 211 212 213 214 215 216
58 1 2 3 4 5 6 7 9 10 11 12 13 14 15 16 17 18 22 23 24 25 26 27 28 29 30 31 32 33 34 40 41 42 43 44 45 46 47 48 49 50 51 52 53 54 62 63 64 65 66 67 68 69 70 71 72 73 74 75 76 77 78 85 86 87 88 89 90 91 92 93 94 95 96 97 98 99 100 101 102 103 104 110 111 112 113 114 115 116 117 118 119 120 121 122 123 124 125 126 127 128 129 130 135 136 137 138 139 140 141 142 143 144 145 146 147 148 149 150 151 152 153 154 155 156 157 158 159 160 161 162 163 164 165 166 167 168 169 170 171 172 173 174 175 176 177 178 179 180 181 182 183 184 185 186 187 188 189 190 191 192 193 194 195 196 197 198 199 200 201 202 203 204 205 206 207 208 209 210 211 212 213 214 215 216
59 1 2 3 4 5 6 7 10 11 12 13 14 15 16 17 18 23 24 25 26 27 28 29 30 31 32 33 34 41 42 43 44 45 46 47 48 49 50 51 52 53 54 55 63 64 65 66 67 68 69 70 71 72 73 74 75 76 77 78 79 86 87 88 89 90 91 92 93 94 95 96 97 98 99 100 101 102 103 104 105 111 112 113 114 115 116 117 118 119 120 121 122 123 124 125 126 127 128 129 130 131 132 136 137 138 139 140 141 142 143 144 145 146 147 148 149 150 151 152 153 154 155 156 157 158 159 160 161 162 163 164 165 166 167 168 169 170 171 172 173 174 175 176 177 178 179 180 181 182 183 184 185 186 187 188 189 190 191 192 193 194 195 196 197 198 199 200 201 202 203 204 205 206 207 208 209 210 211 212 213 214 215 216
60 1 2 3 4 5 6 7 10 11 12 13 14 15 16 17 18 19 24 25 26 27 28 29 30 31 32 33 34 35 42 43 44 45 46 47 48 49 50 51 52 53 54 55 56 64 65 66 67 68 69 70 71 72 73 74 75 76 77 78 79 80 88 89 90 91 92 93 94 95 96 97 98 99 100 101 102 103 104 105 106 112 113 114 115 116 117 118 119 120 121 122 123 124 125 126 127 128 129 130 131 132 133 137 138 139 140 141 142 143 144 145 146 147 148 149 150 151 152 153 154 155 156 157 158 159 160 161 162 163 164 165 166 167 168 169 170 171 172 173 174 175 176 177 178 179 180 181 182 183 184 185 186 187 188 189 190 191 192 193 194 195 196 197 198 199 200 201 202 203 204 205 206 207 208 209 210 211 212 213 214 215 216
61 1 2 3 4 5 6 7 8 11 12 13 14 15 16 17 18 19 25 26 27 28 29 30 31 32 33 34 35 36 43 44 45 46 47 48 49 50 51 52 53 54 55 56 57 65 66 67 68 69 70 71 72 73 74 75 76 77 78 79 80 81 89 90 91 92 93 94 95 96 97 98 99 100 101 102 103 104 105 106 107 114 115 116 117 118 119 120 121 122 123 124 125 126 127 128 129 130 131 132 133 134 138 139 140 141 142 143 144 145 146 147 148 149 150 151 152 153 154 155 156 157 158 159 160 161 162 163 164 165 166 167 168 169 170 171 172 173 174 175 176 177 178 179 180 181 182 183 184 185 186 187 188 189 190 191 192 193 194 195 196 197 198 199 200 201 202 203 204 205 206 207 208 209 210 211 212 213 214 215 216
62 1 2 3 4 5 6 7 8 11 12 13 14 15 16 17 18 19 20 25 26 27 28 29 30 31 32 33 34 35 36 37 44 45 46 47 48 49 50 51 52 53 54 55 56 57 58 66 67 68 69 70 71 72 73 74 75 76 77 78 79 80 81 82 90 91 92 93 94 95 96 97 98 99 100 101 102 103 104 105 106 107 108 109 115 116 117 118 119 120 121 122 123 124 125 126 127 128 129 130 131 132 133 134 135 139 140 141 142 143 144 145 146 147 148 149 150 151 152 153 154 155 156 157 158 159 160 161 162 163 164 165 166 167 168 169 170 171 172 173 174 175 176 177 178 179 180 181 182 183 184 185 186 187 188 189 190 191 192 193 194 195 196 197 198 199 200 201 202 203 204 205 206 207 208 209 210 211 212 213 214 215 216
63 1 2 3 4 5 6 7 8 9 12 13 14 15 16 17 18 19 20 21 26 27 28 29 30 31 32 33 34 35 36 37 38 45 46 47 48 49 50 51 52 53 54 55 56 57 58 59 67 68 69 70 71 72 73 74 75 76 77 78 79 80 81 82 83 84 91 92 93 94 95 96 97 98 99 100 101 102 103 104 105 106 107 108 109 110 116 117 118 119 120 121 122 123 124 125 126 127 128 129 130 131 132 133 134 135 136 140 141 142 143 144 145 146 147 148 149 150 151 152 153 154 155 156 157 158 159 160 161 162 163 164 165 166 167 168 169 170 171 172 173 174 175 176 177 178 179 180 181 182 183 184 185 186 187 188 189 190 191 192 193 194 195 196 197 198 199 200 201 202 203 204 205 206 207 208 209 210 211 212 213 214 215 216
64 1 2 3 4 5 6 7 8 9 12 13 14 15 16 17 18 19 20 21 27 28 29 30 31 32 33 34 35 36 37 38 39 45 46 47 48 49 50 51 52 53 54 55 56 57 58 59 60 68 69 70 71 72 73 74 75 76 77 78 79 80 81 82 83 84 85 92 93 94 95 96 97 98 99 100 101 102 103 104 105 106 107 108 109 110 111 117 118 119 120 121 122 123 124 125 126 127 128 129 130 131 132 133 134 135 136 137 141 142 143 144 145 146 147 148 149 150 151 152 153 154 155 156 157 158 159 160 161 162 163 164 165 166 167 168 169 170 171 172 173 174 175 176 177 178 179 180 181 182 183 184 185 186 187 188 189 190 191 192 193 194 195 196 197 198 199 200 201 202 203 204 205 206 207 208 209 210 211 212 213 214 215 216
65 1 2 3 4 5 6 7 8 9 10 12 13 14 15 16 17 18 19 20 21 22 27 28 29 30 31 32 33 34 35 36 37 38 39 40 46 47 48 49 50 51 52 53 54 55 56 57 58 59 60 61 69 70 71 72 73 74 75 76 77 78 79 80 81 82 83 84 85 86 93 94 95 96 97 98 99 100 101 102 103 104 105 106 107 108 109 110 111 112 118 119 120 121 122 123 124 125 126 127 128 129 130 131 132 133 134 135 136 137 138 142 143 144 145 146 147 148 149 150 151 152 153 154 155 156 157 158 159 160 161 162 163 164 165 166 167 168 169 170 171 172 173 174 175 176 177 178 179 180 181 182 183 184 185 186 187 188 189 190 191 192 193 194 195 196 197 198 199 200 201 202 203 204 205 206 207 208 209 210 211 212 213 214 215 216
66 1 2 3 4 5 6 7 8 9 10 13 14 15 16 17 18 19 20 21 22 23 28 29 30 31 32 33 34 35 36 37 38 39 40 41 47 48 49 50 51 52 53 54 55 56 57 58 59 60 61 62 70 71 72 73 74 75 76 77 78 79 80 81 82 83 84 85 86 87 94 95 96 97 98 99 100 101 102 103 104 105 106 107 108 109 110 111 112 113 119 120 121 122 123 124 125 126 127 128 129 130 131 132 133 134 135 136 137 138 139 143 144 145 146 147 148 149 150 151 152 153 154 155 156 157 158 159 160 161 162 163 164 165 166 167 168 169 170 171 172 173 174 175 176 177 178 179 180 181 182 183 184 185 186 187 188 189 190 191 192 193 194 195 196 197 198 199 200 201 202 203 204 205 206 207 208 209 210 211 212 213 214 215 216
67 1 2 3 4 5 6 7 8 9 10 11 13 14 15 16 17 18 19 20 21 22 23 29 30 31 32 33 34 35 36 37 38 39 40 41 48 49 50 51 52 53 54 55 56 57 58 59 60 61 62 63 71 72 73 74 75 76 77 78 79 80 81 82 83 84 85 86 87 88 95 96 97 98 99 100 101 102 103 104 105 106 107 108 109 110 111 112 113 114 120 121 122 123 124 125 126 127 128 129 130 131 132 133 134 135 136 137 138 139 140 144 145 146 147 148 149 150 151 152 153 154 155 156 157 158 159 160 161 162 163 164 165 166 167 168 169 170 171 172 173 174 175 176 177 178 179 180 181 182 183 184 185 186 187 188 189 190 191 192 193 194 195 196 197 198 199 200 201 202 203 204 205 206 207 208 209 210 211 212 213 214 215 216
68 1 2 3 4 5 6 7 8 9 10 11 14 15 16 17 18 19 20 21 22 23 24 29 30 31 32 33 34 35 36 37 38 39 40 41 42 49 50 51 52 53 54 55 56 57 58 59 60 61 62 63 64 72 73 74 75 76 77 78 79 80 81 82 83 84 85 86 87 88 89 96 97 98 99 100 101 102 103 104 105 106 107 108 109 110 111 112 113 114 115 121 122 123 124 125 126 127 128 129 130 131 132 133 134 135 136 137 138 139 140 141 145 146 147 148 149 150 151 152 153 154 155 156 157 158 159 160 161 162 163 164 165 166 167 168 169 170 171 172 173 174 175 176 177 178 179 180 181 182 183 184 185 186 187 188 189 190 191 192 193 194 195 196 197 198 199 200 201 202 203 204 205 206 207 208 209 210 211 212 213 214 215 216
69 1 2 3 4 5 6 7 8 9 10 11 12 14 15 16 17 18 19 20 21 22 23 24 25 30 31 32 33 34 35 36 37 38 39 40 41 42 43 50 51 52 53 54 55 56 57 58 59 60 61 62 63 64 65 73 74 75 76 77 78 79 80 81 82 83 84 85 86 87 88 89 90 97 98 99 100 101 102 103 104 105 106 107 108 109 110 111 112 113 114 115 116 122 123 124 125 126 127 128 129 130 131 132 133 134 135 136 137 138 139 140 141 142 146 147 148 149 150 151 152 153 154 155 156 157 158 159 160 161 162 163 164 165 166 167 168 169 170 171 172 173 174 175 176 177 178 179 180 181 182 183 184 185 186 187 188 189 190 191 192 193 194 195 196 197 198 199 200 201 202 203 204 205 206 207 208 209 210 211 212 213 214 215 216
70 1 2 3 4 5 6 7 8 9 10 11 12 15 16 17 18 19 20 21 22 23 24 25 26 31 32 33 34 35 36 37 38 39 40 41 42 43 44 51 52 53 54 55 56 57 58 59 60 61 62 63 64 65 66 74 75 76 77 78 79 80 81 82 83 84 85 86 87 88 89 90 91 98 99 100 101 102 103 104 105 106 107 108 109 110 111 112 113 114 115 116 117 123 124 125 126 127 128 129 130 131 132 133 134 135 136 137 138 139 140 141 142 143 147 148 149 150 151 152 153 154 155 156 157 158 159 160 161 162 163 164 165 166 167 168 169 170 171 172 173 174 175 176 177 178 179 180 181 182 183 184 185 186 187 188 189 190 191 192 193 194 195 196 197 198 199 200 201 202 203 204 205 206 207 208 209 210 211 212 213 214 215 216
71 1 2 3 4 5 6 7 8 9 10 11 12 16 17 18 19 20 21 22 23 24 25 26 32 33 34 35 36 37 38 39 40 41 42 43 44 45 52 53 54 55 56 57 58 59 60 61 62 63 64 65 66 67 75 76 77 78 79 80 81 82 83 84 85 86 87 88 89 90 91 92 99 100 101 102 103 104 105 106 107 108 109 110 111 112 113 114 115 116 117 118 124 125 126 127 128 129 130 131 132 133 134 135 136 137 138 139 140 141 142 143 144 148 149 150 151 152 153 154 155 156 157 158 159 160 161 162 163 164 165 166 167 168 169 170 171 172 173 174 175 176 177 178 179 180 181 182 183 184 185 186 187 188 189 190 191 192 193 194 195 196 197 198 199 200 201 202 203 204 205 206 207 208 209 210 211 212 213 214 215 216
72 1 2 3 4 5 6 7 8 9 10 11 12 13 16 17 18 19 20 21 22 23 24 25 26 27 32 33 34 35 36 37 38 39 40 41 42 43 44 45 46 52 53 54 55 56 57 58 59 60 61 62 63 64 65 66 67 68 76 77 78 79 80 81 82 83 84 85 86 87 88 89 90 91 92 93 101 102 103 104 105 106 107 108 109 110 111 112 113 114 115 116 117 118 119 126 127 128 129 130 131 132 133 134 135 136 137 138 139 140 141 142 143 144 145 149 150 151 152 153 154 155 156 157 158 159 160 161 162 163 164 165 166 167 168 169 170 171 172 173 174 175 176 177 178 179 180 181 182 183 184 185 186 187 188 189 190 191 192 193 194 195 196 197 198 199 200 201 202 203 204 205 206 207 208 209 210 211 212 213 214 215 216
73 1 2 3 4 5 6 7 8 9 10 11 12 13 14 16 17 18 19 20 21 22 23 24 25 26 27 28 33 34 35 36 37 38 39 40 41 42 43 44 45 46 47 53 54 55 56 57 58 59 60 61 62 63 64 65 66 67 68 69 77 78 79 80 81 82 83 84 85 86 87 88 89 90 91 92 93 94 102 103 104 105 106 107 108 109 110 111 112 113 114 115 116 117 118 119 120 127 128 129 130 131 132 133 134 135 136 137 138 139 140 141 142 143 144 145 146 150 151 152 153 154 155 156 157 158 159 160 161 162 163 164 165 166 167 168 169 170 171 172 173 174 175 176 177 178 179 180 181 182 183 184 185 186 187 188 189 190 191 192 193 194 195 196 197 198 199 200 201 202 203 204 205 206 207 208 209 210 211 212 213 214 215 216
74 1 2 3 4 5 6 7 8 9 10 11 12 13 14 17 18 19 20 21 22 23 24 25 26 27 28 34 35 36 37 38 39 40 41 42 43 44 45 46 47 48 54 55 56 57 58 59 60 61 62 63 64 65 66 67 68 69 70 78 79 80 81 82 83 84 85 86 87 88 89 90 91 92 93 94 95 103 104 105 106 107 108 109 110 111 112 113 114 115 116 117 118 119 120 121 128 129 130 131 132 133 134 135 136 137 138 139 140 141 142 143 144 145 146 147 151 152 153 154 155 156 157 158 159 160 161 162 163 164 165 166 167 168 169 170 171 172 173 174 175 176 177 178 179 180 181 182 183 184 185 186 187 188 189 190 191 192 193 194 195 196 197 198 199 200 201 202 203 204 205 206 207 208 209 210 211 212 213 214 215 216
75 1 2 3 4 5 6 7 8 9 10 11 12 13 14 15 18 19 20 21 22 23 24 25 26 27 28 29 34 35 36 37 38 39 40 41 42 43 44 45 46 47 48 55 56 57 58 59 60 61 62 63 64 65 66 67 68 69 70 71 79 80 81 82 83 84 85 86 87 88 89 90 91 92 93 94 95 96 104 105 106 107 108 109 110 111 112 113 114 115 116 117 118 119 120 121 122 123 129 130 131 132 133 134 135 136 137 138 139 140 141 142 143 144 145 146 147 148 152 153 154 155 156 157 158 159 160 161 162 163 164 165 166 167 168 169 170 171 172 173 174 175 176 177 178 179 180 181 182 183 184 185 186 187 188 189 190 191 192 193 194 195 196 197 198 199 200 201 202 203 204 205 206 207 208 209 210 211 212 213 214 215 216
76 1 2 3 4 5 6 7 8 9 10 11 12 13 14 15 16 18 19 20 21 22 23 24 25 26 27 28 29 30 35 36 37 38 39 40 41 42 43 44 45 46 47 48 49 56 57 58 59 60 61 62 63 64 65 66 67 68 69 70 71 72 80 81 82 83 84 85 86 87 88 89 90 91 92 93 94 95 96 97 98 105 106 107 108 109 110 111 112 113 114 115 116 117 118 119 120 121 122 123 124 130 131 132 133 134 135 136 137 138 139 140 141 142 143 144 145 146 147 148 149 153 154 155 156 157 158 159 160 161 162 163 164 165 166 167 168 169 170 171 172 173 174 175 176 177 178 179 180 181 182 183 184 185 186 187 188 189 190 191 192 193 194 195 196 197 198 199 200 201 202 203 204 205 206 207 208 209 210 211 212 213 214 215 216
77 1 2 3 4 5 6 7 8 9 10 11 12 13 14 15 16 19 20 21 22 23 24 25 26 27 28 29 30 31 36 37 38 39 40 41 42 43 44 45 46 47 48 49 50 57 58 59 60 61 62 63 64 65 66 67 68 69 70 71 72 73 81 82 83 84 85 86 87 88 89 90 91 92 93 94 95 96 97 98 99 106 107 108 109 110 111 112 113 114 115 116 117 118 119 120 121 122 123 124 125 131 132 133 134 135 136 137 138 139 140 141 142 143 144 145 146 147 148 149 150 154 155 156 157 158 159 160 161 162 163 164 165 166 167 168 169 170 171 172 173 174 175 176 177 178 179 180 181 182 183 184 185 186 187 188 189 190 191 192 193 194 195 196 197 198 199 200 201 202 203 204 205 206 207 208 209 210 211 212 213 214 215 216
78 1 2 3 4 5 6 7 8 9 10 11 12 13 14 15 16 19 20 21 22 23 24 25 26 27 28 29 30 31 37 38 39 40 41 42 43 44 45 46 47 48 49 50 51 58 59 60 61 62 63 64 65 66 67 68 69 70 71 72 73 74 82 83 84 85 86 87 88 89 90 91 92 93 94 95 96 97 98 99 100 107 108 109 110 111 112 113 114 115 116 117 118 119 120 121 122 123 124 125 126 132 133 134 135 136 137 138 139 140 141 142 143 144 145 146 147 148 149 150 151 155 156 157 158 159 160 161 162 163 164 165 166 167 168 169 170 171 172 173 174 175 176 177 178 179 180 181 182 183 184 185 186 187 188 189 190 191 192 193 194 195 196 197 198 199 200 201 202 203 204 205 206 207 208 209 210 211 212 213 214 215 216
79 1 2 3 4 5 6 7 8 9 10 11 12 13 14 15 16 17 20 21 22 23 24 25 26 27 28 29 30 31 32 38 39 40 41 42 43 44 45 46 47 48 49 50 51 52 59 60 61 62 63 64 65 66 67 68 69 70 71 72 73 74 75 83 84 85 86 87 88 89 90 91 92 93 94 95 96 97 98 99 100 101 108 109 110 111 112 113 114 115 116 117 118 119 120 121 122 123 124 125 126 127 133 134 135 136 137 138 139 140 141 142 143 144 145 146 147 148 149 150 151 152 156 157 158 159 160 161 162 163 164 165 166 167 168 169 170 171 172 173 174 175 176 177 178 179 180 181 182 183 184 185 186 187 188 189 190 191 192 193 194 195 196 197 198 199 200 201 202 203 204 205 206 207 208 209 210 211 212 213 214 215 216
80 1 2 3 4 5 6 7 8 9 10 11 12 13 14 15 16 17 18 21 22 23 24 25 26 27 28 29 30 31 32 33 38 39 40 41 42 43 44 45 46 47 48 49 50 51 52 53 60 61 62 63 64 65 66 67 68 69 70 71 72 73 74 75 76 84 85 86 87 88 89 90 91 92 93 94 95 96 97 98 99 100 101 102 109 110 111 112 113 114 115 116 117 118 119 120 121 122 123 124 125 126 127 128 134 135 136 137 138 139 140 141 142 143 144 145 146 147 148 149 150 151 152 153 157 158 159 160 161 162 163 164 165 166 167 168 169 170 171 172 173 174 175 176 177 178 179 180 181 182 183 184 185 186 187 188 189 190 191 192 193 194 195 196 197 198 199 200 201 202 203 204 205 206 207 208 209 210 211 212 213 214 215 216
81 1 2 3 4 5 6 7 8 9 10 11 12 13 14 15 16 17 18 21 22 23 24 25 26 27 28 29 30 31 32 33 34 39 40 41 42 43 44 45 46 47 48 49 50 51 52 53 54 61 62 63 64 65 66 67 68 69 70 71 72 73 74 75 76 77 85 86 87 88 89 90 91 92 93 94 95 96 97 98 99 100 101 102 103 110 111 112 113 114 115 116 117 118 119 120 121 122 123 124 125 126 127 128 129 135 136 137 138 139 140 141 142 143 144 145 146 147 148 149 150 151 152 153 154 158 159 160 161 162 163 164 165 166 167 168 169 170 171 172 173 174 175 176 177 178 179 180 181 182 183 184 185 186 187 188 189 190 191 192 193 194 195 196 197 198 199 200 201 202 203 204 205 206 207 208 209 210 211 212 213 214 215 216
82 1 2 3 4 5 6 7 8 9 10 11 12 13 14 15 16 17 18 19 22 23 24 25 26 27 28 29 30 31 32 33 34 35 40 41 42 43 44 45 46 47 48 49 50 51 52 53 54 55 62 63 64 65 66 67 68 69 70 71 72 73 74 75 76 77 78 86 87 88 89 90 91 92 93 94 95 96 97 98 99 100 101 102 103 104 111 112 113 114 115 116 117 118 119 120 121 122 123 124 125 126 127 128 129 130 136 137 138 139 140 141 142 143 144 145 146 147 148 149 150 151 152 153 154 155 159 160 161 162 163 164 165 166 167 168 169 170 171 172 173 174 175 176 177 178 179 180 181 182 183 184 185 186 187 188 189 190 191 192 193 194 195 196 197 198 199 200 201 202 203 204 205 206 207 208 209 210 211 212 213 214 215 216
83 1 2 3 4 5 6 7 8 9 10 11 12 13 14 15 16 17 18 19 22 23 24 25 26 27 28 29 30 31 32 33 34 35 41 42 43 44 45 46 47 48 49 50 51 52 53 54 55 56 63 64 65 66 67 68 69 70 71 72 73 74 75 76 77 78 79 87 88 89 90 91 92 93 94 95 96 97 98 99 100 101 102 103 104 105 112 113 114 115 116 117 118 119 120 121 122 123 124 125 126 127 128 129 130 131 137 138 139 140 141 142 143 144 145 146 147 148 149 150 151 152 153 154 155 156 160 161 162 163 164 165 166 167 168 169 170 171 172 173 174 175 176 177 178 179 180 181 182 183 184 185 186 187 188 189 190 191 192 193 194 195 196 197 198 199 200 201 202 203 204 205 206 207 208 209 210 211 212 213 214 215 216
84 1 2 3 4 5 6 7 8 9 10 11 12 13 14 15 16 17 18 19 20 23 24 25 26 27 28 29 30 31 32 33 34 35 36 42 43 44 45 46 47 48 49 50 51 52 53 54 55 56 57 63 64 65 66 67 68 69 70 71 72 73 74 75 76 77 78 79 80 88 89 90 91 92 93 94 95 96 97 98 99 100 101 102 103 104 105 106 113 114 115 116 117 118 119 120 121 122 123 124 125 126 127 128 129 130 131 132 138 139 140 141 142 143 144 145 146 147 148 149 150 151 152 153 154 155 156 157 161 162 163 164 165 166 167 168 169 170 171 172 173 174 175 176 177 178 179 180 181 182 183 184 185 186 187 188 189 190 191 192 193 194 195 196 197 198 199 200 201 202 203 204 205 206 207 208 209 210 211 212 213 214 215 216
85 1 2 3 4 5 6 7 8 9 10 11 12 13 14 15 16 17 18 19 20 23 24 25 26 27 28 29 30 31 32 33 34 35 36 37 42 43 44 45 46 47 48 49 50 51 52 53 54 55 56 57 58 64 65 66 67 68 69 70 71 72 73 74 75 76 77 78 79 80 81 89 90 91 92 93 94 95 96 97 98 99 100 101 102 103 104 105 106 107 114 115 116 117 118 119 120 121 122 123 124 125 126 127 128 129 130 131 132 133 139 140 141 142 143 144 145 146 147 148 149 150 151 152 153 154 155 156 157 158 161 162 163 164 165 166 167 168 169 170 171 172 173 174 175 176 177 178 179 180 181 182 183 184 185 186 187 188 189 190 191 192 193 194 195 196 197 198 199 200 201 202 203 204 205 206 207 208 209 210 211 212 213 214 215 216
86 1 2 3 4 5 6 7 8 9 10 11 12 13 14 15 16 17 18 19 20 21 24 25 26 27 28 29 30 31 32 33 34 35 36 37 38 43 44 45 46 47 48 49 50 51 52 53 54 55 56 57 58 59 65 66 67 68 69 70 71 72 73 74 75 76 77 78 79 80 81 82 90 91 92 93 94 95 96 97 98 99 100 101 102 103 104 105 106 107 108 115 116 117 118 119 120 121 122 123 124 125 126 127 128 129 130 131 132 133 134 140 141 142 143 144 145 146 147 148 149 150 151 152 153 154 155 156 157 158 162 163 164 165 166 167 168 169 170 171 172 173 174 175 176 177 178 179 180 181 182 183 184 185 186 187 188 189 190 191 192 193 194 195 196 197 198 199 200 201 202 203 204 205 206 207 208 209 210 211 212 213 214 215 216
87 1 2 3 4 5 6 7 8 9 10 11 12 13 14 15 16 17 18 19 20 21 22 25 26 27 28 29 30 31 32 33 34 35 36 37 38 44 45 46 47 48 49 50 51 52 53 54 55 56 57 58 59 66 67 68 69 70 71 72 73 74 75 76 77 78 79 80 81 82 83 91 92 93 94 95 96 97 98 99 100 101 102 103 104 105 106 107 108 109 116 117 118 119 120 121 122 123 124 125 126 127 128 129 130 131 132 133 134 135 141 142 143 144 145 146 147 148 149 150 151 152 153 154 155 156 157 158 159 163 164 165 166 167 168 169 170 171 172 173 174 175 176 177 178 179 180 181 182 183 184 185 186 187 188 189 190 191 192 193 194 195 196 197 198 199 200 201 202 203 204 205 206 207 208 209 210 211 212 213 214 215 216
88 1 2 3 4 5 6 7 8 9 10 11 12 13 14 15 16 17 18 19 20 21 22 25 26 27 28 29 30 31 32 33 34 35 36 37 38 39 45 46 47 48 49 50 51 52 53 54 55 56 57 58 59 60 67 68 69 70 71 72 73 74 75 76 77 78 79 80 81 82 83 84 92 93 94 95 96 97 98 99 100 101 102 103 104 105 106 107 108 109 110 117 118 119 120 121 122 123 124 125 126 127 128 129 130 131 132 133 134 135 136 142 143 144 145 146 147 148 149 150 151 152 153 154 155 156 157 158 159 160 164 165 166 167 168 169 170 171 172 173 174 175 176 177 178 179 180 181 182 183 184 185 186 187 188 189 190 191 192 193 194 195 196 197 198 199 200 201 202 203 204 205 206 207 208 209 210 211 212 213 214 215 216
89 1 2 3 4 5 6 7 8 9 10 11 12 13 14 15 16 17 18 19 20 21 22 23 26 27 28 29 30 31 32 33 34 35 36 37 38 39 40 45 46 47 48 49 50 51 52 53 54 55 56 57 58 59 60 61 68 69 70 71 72 73 74 75 76 77 78 79 80 81 82 83 84 85 93 94 95 96 97 98 99 100 101 102 103 104 105 106 107 108 109 110 111 118 119 120 121 122 123 124 125 126 127 128 129 130 131 132 133 134 135 136 137 143 144 145 146 147 148 149 150 151 152 153 154 155 156 157 158 159 160 161 165 166 167 168 169 170 171 172 173 174 175 176 177 178 179 180 181 182 183 184 185 186 187 188 189 190 191 192 193 194 195 196 197 198 199 200 201 202 203 204 205 206 207 208 209 210 211 212 213 214 215 216
90 1 2 3 4 5 6 7 8 9 10 11 12 13 14 15 16 17 18 19 20 21 22 23 27 28 29 30 31 32 33 34 35 36 37 38 39 40 41 46 47 48 49 50 51 52 53 54 55 56 57 58 59 60 61 62 69 70 71 72 73 74 75 76 77 78 79 80 81 82 83 84 85 86 94 95 96 97 98 99 100 101 102 103 104 105 106 107 108 109 110 111 112 119 120 121 122 123 124 125 126 127 128 129 130 131 132 133 134 135 136 137 138 144 145 146 147 148 149 150 151 152 153 154 155 156 157 158 159 160 161 162 166 167 168 169 170 171 172 173 174 175 176 177 178 179 180 181 182 183 184 185 186 187 188 189 190 191 192 193 194 195 196 197 198 199 200 201 202 203 204 205 206 207 208 209 210 211 212 213 214 215 216
91 1 2 3 4 5 6 7 8 9 10 11 12 13 14 15 16 17 18 19 20 21 22 23 24 27 28 29 30 31 32 33 34 35 36 37 38 39 40 41 47 48 49 50 51 52 53 54 55 56 57 58 59 60 61 62 63 70 71 72 73 74 75 76 77 78 79 80 81 82 83 84 85 86 87 95 96 97 98 99 100 101 102 103 104 105 106 107 108 109 110 111 112 113 120 121 122 123 124 125 126 127 128 129 130 131 132 133 134 135 136 137 138 139 145 146 147 148 149 150 151 152 153 154 155 156 157 158 159 160 161 162 163 166 167 168 169 170 171 172 173 174 175 176 177 178 179 180 181 182 183 184 185 186 187 188 189 190 191 192 193 194 195 196 197 198 199 200 201 202 203 204 205 206 207 208 209 210 211 212 213 214 215 216
92 1 2 3 4 5 6 7 8 9 10 11 12 13 14 15 16 17 18 19 20 21 22 23 24 25 28 29 30 31 32 33 34 35 36 37 38 39 40 41 42 48 49 50 51 52 53 54 55 56 57 58 59 60 61 62 63 64 71 72 73 74 75 76 77 78 79 80 81 82 83 84 85 86 87 88 96 97 98 99 100 101 102 103 104 105 106 107 108 109 110 111 112 113 114 121 122 123 124 125 126 127 128 129 130 131 132 133 134 135 136 137 138 139 140 146 147 148 149 150 151 152 153 154 155 156 157 158 159 160 161 162 163 164 167 168 169 170 171 172 173 174 175 176 177 178 179 180 181 182 183 184 185 186 187 188 189 190 191 192 193 194 195 196 197 198 199 200 201 202 203 204 205 206 207 208 209 210 211 212 213 214 215 216
93 1 2 3 4 5 6 7 8 9 10 11 12 13 14 15 16 17 18 19 20 21 22 23 24 25 29 30 31 32 33 34 35 36 37 38 39 40 41 42 43 49 50 51 52 53 54 55 56 57 58 59 60 61 62 63 64 65 72 73 74 75 76 77 78 79 80 81 82 83 84 85 86 87 88 89 97 98 99 100 101 102 103 104 105 106 107 108 109 110 111 112 113 114 115 122 123 124 125 126 127 128 129 130 131 132 133 134 135 136 137 138 139 140 141 146 147 148 149 150 151 152 153 154 155 156 157 158 159 160 161 162 163 164 165 168 169 170 171 172 173 174 175 176 177 178 179 180 181 182 183 184 185 186 187 188 189 190 191 192 193 194 195 196 197 198 199 200 201 202 203 204 205 206 207 208 209 210 211 212 213 214 215 216
94 1 2 3 4 5 6 7 8 9 10 11 12 13 14 15 16 17 18 19 20 21 22 23 24 25 26 29 30 31 32 33 34 35 36 37 38 39 40 41 42 43 44 50 51 52 53 54 55 56 57 58 59 60 61 62 63 64 65 66 73 74 75 76 77 78 79 80 81 82 83 84 85 86 87 88 89 90 98 99 100 101 102 103 104 105 106 107 108 109 110 111 112 113 114 115 116 123 124 125 126 127 128 129 130 131 132 133 134 135 136 137 138 139 140 141 142 147 148 149 150 151 152 153 154 155 156 157 158 159 160 161 162 163 164 165 166 169 170 171 172 173 174 175 176 177 178 179 180 181 182 183 184 185 186 187 188 189 190 191 192 193 194 195 196 197 198 199 200 201 202 203 204 205 206 207 208 209 210 211 212 213 214 215 216
95 1 2 3 4 5 6 7 8 9 10 11 12 13 14 15 16 17 18 19 20 21 22 23 24 25 26 27 30 31 32 33 34 35 36 37 38 39 40 41 42 43 44 45 50 51 52 53 54 55 56 57 58 59 60 61 62 63 64 65 66 67 74 75 76 77 78 79 80 81 82 83 84 85 86 87 88 89 90 91 99 100 101 102 103 104 105 106 107 108 109 110 111 112 113 114 115 116 117 124 125 126 127 128 129 130 131 132 133 134 135 136 137 138 139 140 141 142 148 149 150 151 152 153 154 155 156 157 158 159 160 161 162 163 164 165 166 167 170 171 172 173 174 175 176 177 178 179 180 181 182 183 184 185 186 187 188 189 190 191 192 193 194 195 196 197 198 199 200 201 202 203 204 205 206 207 208 209 210 211 212 213 214 215 216
96 1 2 3 4 5 6 7 8 9 10 11 12 13 14 15 16 17 18 19 20 21 22 23 24 25 26 27 31 32 33 34 35 36 37 38 39 40 41 42 43 44 45 46 51 52 53 54 55 56 57 58 59 60 61 62 63 64 65 66 67 68 75 76 77 78 79 80 81 82 83 84 85 86 87 88 89 90 91 92 100 101 102 103 104 105 106 107 108 109 110 111 112 113 114 115 116 117 118 125 126 127 128 129 130 131 132 133 134 135 136 137 138 139 140 141 142 143 149 150 151 152 153 154 155 156 157 158 159 160 161 162 163 164 165 166 167 171 172 173 174 175 176 177 178 179 180 181 182 183 184 185 186 187 188 189 190 191 192 193 194 195 196 197 198 199 200 201 202 203 204 205 206 207 208 209 210 211 212 213 214 215 216
97 1 2 3 4 5 6 7 8 9 10 11 12 13 14 15 16 17 18 19 20 21 22 23 24 25 26 27 28 31 32 33 34 35 36 37 38 39 40 41 42 43 44 45 46 52 53 54 55 56 57 58 59 60 61 62 63 64 65 66 67 68 69 76 77 78 79 80 81 82 83 84 85 86 87 88 89 90 91 92 93 101 102 103 104 105 106 107 108 109 110 111 112 113 114 115 116 117 118 119 126 127 128 129 130 131 132 133 134 135 136 137 138 139 140 141 142 143 144 150 151 152 153 154 155 156 157 158 159 160 161 162 163 164 165 166 167 168 172 173 174 175 176 177 178 179 180 181 182 183 184 185 186 187 188 189 190 191 192 193 194 195 196 197 198 199 200 201 202 203 204 205 206 207 208 209 210 211 212 213 214 215 216
98 1 2 3 4 5 6 7 8 9 10 11 12 13 14 15 16 17 18 19 20 21 22 23 24 25 26 27 28 29 32 33 34 35 36 37 38 39 40 41 42 43 44 45 46 47 53 54 55 56 57 58 59 60 61 62 63 64 65 66 67 68 69 70 76 77 78 79 80 81 82 83 84 85 86 87 88 89 90 91 92 93 94 102 103 104 105 106 107 108 109 110 111 112 113 114 115 116 117 118 119 120 127 128 129 130 131 132 133 134 135 136 137 138 139 140 141 142 143 144 145 151 152 153 154 155 156 157 158 159 160 161 162 163 164 165 166 167 168 169 173 174 175 176 177 178 179 180 181 182 183 184 185 186 187 188 189 190 191 192 193 194 195 196 197 198 199 200 201 202 203 204 205 206 207 208 209 210 211 212 213 214 215 216
99 1 2 3 4 5 6 7 8 9 10 11 12 13 14 15 16 17 18 19 20 21 22 23 24 25 26 27 28 29 32 33 34 35 36 37 38 39 40 41 42 43 44 45 46 47 48 54 55 56 57 58 59 60 61 62 63 64 65 66 67 68 69 70 71 77 78 79 80 81 82 83 84 85 86 87 88 89 90 91 92 93 94 95 103 104 105 106 107 108 109 110 111 112 113 114 115 116 117 118 119 120 121 128 129 130 131 132 133 134 135 136 137 138 139 140 141 142 143 144 145 146 152 153 154 155 156 157 158 159 160 161 162 163 164 165 166 167 168 169 170 173 174 175 176 177 178 179 180 181 182 183 184 185 186 187 188 189 190 191 192 193 194 195 196 197 198 199 200 201 202 203 204 205 206 207 208 209 210 211 212 213 214 215 216
100 1 2 3 4 5 6 7 8 9 10 11 12 13 14 15 16 17 18 19 20 21 22 23 24 25 26 27 28 29 30 33 34 35 36 37 38 39 40 41 42 43 44 45 46 47 48 49 54 55 56 57 58 59 60 61 62 63 64 65 66 67 68 69 70 71 78 79 80 81 82 83 84 85 86 87 88 89 90 91 92 93 94 95 96 104 105 106 107 108 109 110 111 112 113 114 115 116 117 118 119 120 121 122 129 130 131 132 133 134 135 136 137 138 139 140 141 142 143 144 145 146 147 153 154 155 156 157 158 159 160 161 162 163 164 165 166 167 168 169 170 174 175 176 177 178 179 180 181 182 183 184 185 186 187 188 189 190 191 192 193 194 195 196 197 198 199 200 201 202 203 204 205 206 207 208 209 210 211 212 213 214 215 216
101 1 2 3 4 5 6 7 8 9 10 11 12 13 14 15 16 17 18 19 20 21 22 23 24 25 26 27 28 29 30 31 34 35 36 37 38 39 40 41 42 43 44 45 46 47 48 49 50 55 56 57 58 59 60 61 62 63 64 65 66 67 68 69 70 71 72 79 80 81 82 83 84 85 86 87 88 89 90 91 92 93 94 95 96 97 105 106 107 108 109 110 111 112 113 114 115 116 117 118 119 120 121 122 123 130 131 132 133 134 135 136 137 138 139 140 141 142 143 144 145 146 147 148 154 155 156 157 158 159 160 161 162 163 164 165 166 167 168 169 170 171 175 176 177 178 179 180 181 182 183 184 185 186 187 188 189 190 191 192 193 194 195 196 197 198 199 200 201 202 203 204 205 206 207 208 209 210 211 212 213 214 215 216
102 1 2 3 4 5 6 7 8 9 10 11 12 13 14 15 16 17 18 19 20 21 22 23 24 25 26 27 28 29 30 31 32 35 36 37 38 39 40 41 42 43 44 45 46 47 48 49 50 51 56 57 58 59 60 61 62 63 64 65 66 67 68 69 70 71 72 73 80 81 82 83 84 85 86 87 88 89 90 91 92 93 94 95 96 97 98 106 107 108 109 110 111 112 113 114 115 116 117 118 119 120 121 122 123 124 131 132 133 134 135 136 137 138 139 140 141 142 143 144 145 146 147 148 149 155 156 157 158 159 160 161 162 163 164 165 166 167 168 169 170 171 172 176 177 178 179 180 181 182 183 184 185 186 187 188 189 190 191 192 193 194 195 196 197 198 199 200 201 202 203 204 205 206 207 208 209 210 211 212 213 214 215 216
103 1 2 3 4 5 6 7 8 9 10 11 12 13 14 15 16 17 18 19 20 21 22 23 24 25 26 27 28 29 30 31 32 35 36 37 38 39 40 41 42 43 44 45 46 47 48 49 50 51 57 58 59 60 61 62 63 64 65 66 67 68 69 70 71 72 73 74 81 82 83 84 85 86 87 88 89 90 91 92 93 94 95 96 97 98 99 107 108 109 110 111 112 113 114 115 116 117 118 119 120 121 122 123 124 125 132 133 134 135 136 137 138 139 140 141 142 143 144 145 146 147 148 149 150 156 157 158 159 160 161 162 163 164 165 166 167 168 169 170 171 172 173 176 177 178 179 180 181 182 183 184 185 186 187 188 189 190 191 192 193 194 195 196 197 198 199 200 201 202 203 204 205 206 207 208 209 210 211 212 213 214 215 216
104 1 2 3 4 5 6 7 8 9 10 11 12 13 14 15 16 17 18 19 20 21 22 23 24 25 26 27 28 29 30 31 32 33 36 37 38 39 40 41 42 43 44 45 46 47 48 49 50 51 52 58 59 60 61 62 63 64 65 66 67 68 69 70 71 72 73 74 75 82 83 84 85 86 87 88 89 90 91 92 93 94 95 96 97 98 99 100 108 109 110 111 112 113 114 115 116 117 118 119 120 121 122 123 124 125 126 133 134 135 136 137 138 139 140 141 142 143 144 145 146 147 148 149 150 151 157 158 159 160 161 162 163 164 165 166 167 168 169 170 171 172 173 174 177 178 179 180 181 182 183 184 185 186 187 188 189 190 191 192 193 194 195 196 197 198 199 200 201 202 203 204 205 206 207 208 209 210 211 212 213 214 215 216
105 1 2 3 4 5 6 7 8 9 10 11 12 13 14 15 16 17 18 19 20 21 22 23 24 25 26 27 28 29 30 31 32 33 34 37 38 39 40 41 42 43 44 45 46 47 48 49 50 51 52 53 59 60 61 62 63 64 65 66 67 68 69 70 71 72 73 74 75 76 83 84 85 86 87 88 89 90 91 92 93 94 95 96 97 98 99 100 101 109 110 111 112 113 114 115 116 117 118 119 120 121 122 123 124 125 126 127 134 135 136 137 138 139 140 141 142 143 144 145 146 147 148 149 150 151 152 157 158 159 160 161 162 163 164 165 166 167 168 169 170 171 172 173 174 175 178 179 180 181 182 183 184 185 186 187 188 189 190 191 192 193 194 195 196 197 198 199 200 201 202 203 204 205 206 207 208 209 210 211 212 213 214 215 216
106 1 2 3 4 5 6 7 8 9 10 11 12 13 14 15 16 17 18 19 20 21 22 23 24 25 26 27 28 29 30 31 32 33 34 35 38 39 40 41 42 43 44 45 46 47 48 49 50 51 52 53 54 60 61 62 63 64 65 66 67 68 69 70 71 72 73 74 75 76 77 84 85 86 87 88 89 90 91 92 93 94 95 96 97 98 99 100 101 102 110 111 112 113 114 115 116 117 118 119 120 121 122 123 124 125 126 127 128 135 136 137 138 139 140 141 142 143 144 145 146 147 148 149 150 151 152 153 158 159 160 161 162 163 164 165 166 167 168 169 170 171 172 173 174 175 179 180 181 182 183 184 185 186 187 188 189 190 191 192 193 194 195 196 197 198 199 200 201 202 203 204 205 206 207 208 209 210 211 212 213 214 215 216
107 1 2 3 4 5 6 7 8 9 10 11 12 13 14 15 16 17 18 19 20 21 22 23 24 25 26 27 28 29 30 31 32 33 34 35 38 39 40 41 42 43 44 45 46 47 48 49 50 51 52 53 54 55 61 62 63 64 65 66 67 68 69 70 71 72 73 74 75 76 77 78 85 86 87 88 89 90 91 92 93 94 95 96 97 98 99 100 101 102 103 111 112 113 114 115 116 117 118 119 120 121 122 123 124 125 126 127 128 129 136 137 138 139 140 141 142 143 144 145 146 147 148 149 150 151 152 153 154 159 160 161 162 163 164 165 166 167 168 169 170 171 172 173 174 175 176 180 181 182 183 184 185 186 187 188 189 190 191 192 193 194 195 196 197 198 199 200 201 202 203 204 205 206 207 208 209 210 211 212 213 214 215 216
108 1 2 3 4 5 6 7 8 9 10 11 12 13 14 15 16 17 18 19 20 21 22 23 24 25 26 27 28 29 30 31 32 33 34 35 36 39 40 41 42 43 44 45 46 47 48 49 50 51 52 53 54 55 56 62 63 64 65 66 67 68 69 70 71 72 73 74 75 76 77 78 79 86 87 88 89 90 91 92 93 94 95 96 97 98 99 100 101 102 103 104 112 113 114 115 116 117 118 119 120 121 122 123 124 125 126 127 128 129 130 137 138 139 140 141 142 143 144 145 146 147 148 149 150 151 152 153 154 155 160 161 162 163 164 165 166 167 168 169 170 171 172 173 174 175 176 177 180 181 182 183 184 185 186 187 188 189 190 191 192 193 194 195 196 197 198 199 200 201 202 203 204 205 206 207 208 209 210 211 212 213 214 215 216
109 1 2 3 4 5 6 7 8 9 10 11 12 13 14 15 16 17 18 19 20 21 22 23 24 25 26 27 28 29 30 31 32 33 34 35 36 37 40 41 42 43 44 45 46 47 48 49 50 51 52 53 54 55 56 57 62 63 64 65 66 67 68 69 70 71 72 73 74 75 76 77 78 79 80 87 88 89 90 91 92 93 94 95 96 97 98 99 100 101 102 103 104 105 113 114 115 116 117 118 119 120 121 122 123 124 125 126 127 128 129 130 131 138 139 140 141 142 143 144 145 146 147 148 149 150 151 152 153 154 155 161 162 163 164 165 166 167 168 169 170 171 172 173 174 175 176 177 178 181 182 183 184 185 186 187 188 189 190 191 192 193 194 195 196 197 198 199 200 201 202 203 204 205 206 207 208 209 210 211 212 213 214 215 216
110 1 2 3 4 5 6 7 8 9 10 11 12 13 14 15 16 17 18 19 20 21 22 23 24 25 26 27 28 29 30 31 32 33 34 35 36 37 41 42 43 44 45 46 47 48 49 50 51 52 53 54 55 56 57 58 63 64 65 66 67 68 69 70 71 72 73 74 75 76 77 78 79 80 81 88 89 90 91 92 93 94 95 96 97 98 99 100 101 102 103 104 105 106 114 115 116 117 118 119 120 121 122 123 124 125 126 127 128 129 130 131 132 139 140 141 142 143 144 145 146 147 148 149 150 151 152 153 154 155 156 162 163 164 165 166 167 168 169 170 171 172 173 174 175 176 177 178 179 182 183 184 185 186 187 188 189 190 191 192 193 194 195 196 197 198 199 200 201 202 203 204 205 206 207 208 209 210 211 212 213 214 215 216
111 1 2 3 4 5 6 7 8 9 10 11 12 13 14 15 16 17 18 19 20 21 22 23 24 25 26 27 28 29 30 31 32 33 34 35 36 37 38 42 43 44 45 46 47 48 49 50 51 52 53 54 55 56 57 58 59 64 65 66 67 68 69 70 71 72 73 74 75 76 77 78 79 80 81 82 89 90 91 92 93 94 95 96 97 98 99 100 101 102 103 104 105 106 107 115 116 117 118 119 120 121 122 123 124 125 126 127 128 129 130 131 132 133 140 141 142 143 144 145 146 147 148 149 150 151 152 153 154 155 156 157 163 164 165 166 167 168 169 170 171 172 173 174 175 176 177 178 179 182 183 184 185 186 187 188 189 190 191 192 193 194 195 196 197 198 199 200 201 202 203 204 205 206 207 208 209 210 211 212 213 214 215 216
112 1 2 3 4 5 6 7 8 9 10 11 12 13 14 15 16 17 18 19 20 21 22 23 24 25 26 27 28 29 30 31 32 33 34 35 36 37 38 39 42 43 44 45 46 47 48 49 50 51 52 53 54 55 56 57 58 59 60 65 66 67 68 69 70 71 72 73 74 75 76 77 78 79 80 81 82 83 90 91 92 93 94 95 96 97 98 99 100 101 102 103 104 105 106 107 108 116 117 118 119 120 121 122 123 124 125 126 127 128 129 130 131 132 133 134 141 142 143 144 145 146 147 148 149 150 151 152 153 154 155 156 157 158 164 165 166 167 168 169 170 171 172 173 174 175 176 177 178 179 180 183 184 185 186 187 188 189 190 191 192 193 194 195 196 197 198 199 200 201 202 203 204 205 206 207 208 209 210 211 212 213 214 215 216
113 1 2 3 4 5 6 7 8 9 10 11 12 13 14 15 16 17 18 19 20 21 22 23 24 25 26 27 28 29 30 31 32 33 34 35 36 37 38 39 40 43 44 45 46 47 48 49 50 51 52 53 54 55 56 57 58 59 60 66 67 68 69 70 71 72 73 74 75 76 77 78 79 80 81 82 83 84 91 92 93 94 95 96 97 98 99 100 101 102 103 104 105 106 107 108 109 117 118 119 120 121 122 123 124 125 126 127 128 129 130 131 132 133 134 135 142 143 144 145 146 147 148 149 150 151 152 153 154 155 156 157 158 159 165 166 167 168 169 170 171 172 173 174 175 176 177 178 179 180 181 184 185 186 187 188 189 190 191 192 193 194 195 196 197 198 199 200 201 202 203 204 205 206 207 208 209 210 211 212 213 214 215 216
114 1 2 3 4 5 6 7 8 9 10 11 12 13 14 15 16 17 18 19 20 21 22 23 24 25 26 27 28 29 30 31 32 33 34 35 36 37 38 39 40 41 44 45 46 47 48 49 50 51 52 53 54 55 56 57 58 59 60 61 67 68 69 70 71 72 73 74 75 76 77 78 79 80 81 82 83 84 85 92 93 94 95 96 97 98 99 100 101 102 103 104 105 106 107 108 109 110 118 119 120 121 122 123 124 125 126 127 128 129 130 131 132 133 134 135 136 143 144 145 146 147 148 149 150 151 152 153 154 155 156 157 158 159 160 166 167 168 169 170 171 172 173 174 175 176 177 178 179 180 181 182 185 186 187 188 189 190 191 192 193 194 195 196 197 198 199 200 201 202 203 204 205 206 207 208 209 210 211 212 213 214 215 216
115 1 2 3 4 5 6 7 8 9 10 11 12 13 14 15 16 17 18 19 20 21 22 23 24 25 26 27 28 29 30 31 32 33 34 35 36 37 38 39 40 41 45 46 47 48 49 50 51 52 53 54 55 56 57 58 59 60 61 62 68 69 70 71 72 73 74 75 76 77 78 79 80 81 82 83 84 85 86 93 94 95 96 97 98 99 100 101 102 103 104 105 106 107 108 109 110 111 119 120 121 122 123 124 125 126 127 128 129 130 131 132 133 134 135 136 137 144 145 146 147 148 149 150 151 152 153 154 155 156 157 158 159 160 161 166 167 168 169 170 171 172 173 174 175 176 177 178 179 180 181 182 185 186 187 188 189 190 191 192 193 194 195 196 197 198 199 200 201 202 203 204 205 206 207 208 209 210 211 212 213 214 215 216
116 1 2 3 4 5 6 7 8 9 10 11 12 13 14 15 16 17 18 19 20 21 22 23 24 25 26 27 28 29 30 31 32 33 34 35 36 37 38 39 40 41 42 46 47 48 49 50 51 52 53 54 55 56 57 58 59 60 61 62 63 69 70 71 72 73 74 75 76 77 78 79 80 81 82 83 84 85 86 87 94 95 96 97 98 99 100 101 102 103 104 105 106 107 108 109 110 111 112 120 121 122 123 124 125 126 127 128 129 130 131 132 133 134 135 136 137 138 145 146 147 148 149 150 151 152 153 154 155 156 157 158 159 160 161 162 167 168 169 170 171 172 173 174 175 176 177 178 179 180 181 182 183 186 187 188 189 190 191 192 193 194 195 196 197 198 199 200 201 202 203 204 205 206 207 208 209 210 211 212 213 214 215 216
117 1 2 3 4 5 6 7 8 9 10 11 12 13 14 15 16 17 18 19 20 21 22 23 24 25 26 27 28 29 30 31 32 33 34 35 36 37 38 39 40 41 42 43 47 48 49 50 51 52 53 54 55 56 57 58 59 60 61 62 63 64 70 71 72 73 74 75 76 77 78 79 80 81 82 83 84 85 86 87 88 95 96 97 98 99 100 101 102 103 104 105 106 107 108 109 110 111 112 113 121 122 123 124 125 126 127 128 129 130 131 132 133 134 135 136 137 138 139 146 147 148 149 150 151 152 153 154 155 156 157 158 159 160 161 162 163 168 169 170 171 172 173 174 175 176 177 178 179 180 181 182 183 184 187 188 189 190 191 192 193 194 195 196 197 198 199 200 201 202 203 204 205 206 207 208 209 210 211 212 213 214 215 216
118 1 2 3 4 5 6 7 8 9 10 11 12 13 14 15 16 17 18 19 20 21 22 23 24 25 26 27 28 29 30 31 32 33 34 35 36 37 38 39 40 41 42 43 44 47 48 49 50 51 52 53 54 55 56 57 58 59 60 61 62 63 64 65 71 72 73 74 75 76 77 78 79 80 81 82 83 84 85 86 87 88 89 96 97 98 99 100 101 102 103 104 105 106 107 108 109 110 111 112 113 114 122 123 124 125 126 127 128 129 130 131 132 133 134 135 136 137 138 139 140 146 147 148 149 150 151 152 153 154 155 156 157 158 159 160 161 162 163 169 170 171 172 173 174 175 176 177 178 179 180 181 182 183 184 185 188 189 190 191 192 193 194 195 196 197 198 199 200 201 202 203 204 205 206 207 208 209 210 211 212 213 214 215 216
119 1 2 3 4 5 6 7 8 9 10 11 12 13 14 15 16 17 18 19 20 21 22 23 24 25 26 27 28 29 30 31 32 33 34 35 36 37 38 39 40 41 42 43 44 48 49 50 51 52 53 54 55 56 57 58 59 60 61 62 63 64 65 66 72 73 74 75 76 77 78 79 80 81 82 83 84 85 86 87 88 89 90 97 98 99 100 101 102 103 104 105 106 107 108 109 110 111 112 113 114 115 123 124 125 126 127 128 129 130 131 132 133 134 135 136 137 138 139 140 141 147 148 149 150 151 152 153 154 155 156 157 158 159 160 161 162 163 164 170 171 172 173 174 175 176 177 178 179 180 181 182 183 184 185 188 189 190 191 192 193 194 195 196 197 198 199 200 201 202 203 204 205 206 207 208 209 210 211 212 213 214 215 216
120 1 2 3 4 5 6 7 8 9 10 11 12 13 14 15 16 17 18 19 20 21 22 23 24 25 26 27 28 29 30 31 32 33 34 35 36 37 38 39 40 41 42 43 44 45 49 50 51 52 53 54 55 56 57 58 59 60 61 62 63 64 65 66 67 73 74 75 76 77 78 79 80 81 82 83 84 85 86 87 88 89 90 91 98 99 100 101 102 103 104 105 106 107 108 109 110 111 112 113 114 115 116 124 125 126 127 128 129 130 131 132 133 134 135 136 137 138 139 140 141 148 149 150 151 152 153 154 155 156 157 158 159 160 161 162 163 164 165 171 172 173 174 175 176 177 178 179 180 181 182 183 184 185 186 189 190 191 192 193 194 195 196 197 198 199 200 201 202 203 204 205 206 207 208 209 210 211 212 213 214 215 216
121 1 2 3 4 5 6 7 8 9 10 11 12 13 14 15 16 17 18 19 20 21 22 23 24 25 26 27 28 29 30 31 32 33 34 35 36 37 38 39 40 41 42 43 44 45 46 50 51 52 53 54 55 56 57 58 59 60 61 62 63 64 65 66 67 68 74 75 76 77 78 79 80 81 82 83 84 85 86 87 88 89 90 91 92 99 100 101 102 103 104 105 106 107 108 109 110 111 112 113 114 115 116 117 125 126 127 128 129 130 131 132 133 134 135 136 137 138 139 140 141 142 149 150 151 152 153 154 155 156 157 158 159 160 161 162 163 164 165 166 171 172 173 174 175 176 177 178 179 180 181 182 183 184 185 186 190 191 192 193 194 195 196 197 198 199 200 201 202 203 204 205 206 207 208 209 210 211 212 213 214 215 216
122 1 2 3 4 5 6 7 8 9 10 11 12 13 14 15 16 17 18 19 20 21 22 23 24 25 26 27 28 29 30 31 32 33 34 35 36 37 38 39 40 41 42 43 44 45 46 47 50 51 52 53 54 55 56 57 58 59 60 61 62 63 64 65 66 67 68 69 75 76 77 78 79 80 81 82 83 84 85 86 87 88 89 90 91 92 93 100 101 102 103 104 105 106 107 108 109 110 111 112 113 114 115 116 117 118 126 127 128 129 130 131 132 133 134 135 136 137 138 139 140 141 142 143 150 151 152 153 154 155 156 157 158 159 160 161 162 163 164 165 166 167 172 173 174 175 176 177 178 179 180 181 182 183 184 185 186 187 190 191 192 193 194 195 196 197 198 199 200 201 202 203 204 205 206 207 208 209 210 211 212 213 214 215 216
123 1 2 3 4 5 6 7 8 9 10 11 12 13 14 15 16 17 18 19 20 21 22 23 24 25 26 27 28 29 30 31 32 33 34 35 36 37 38 39 40 41 42 43 44 45 46 47 48 51 52 53 54 55 56 57 58 59 60 61 62 63 64 65 66 67 68 69 70 75 76 77 78 79 80 81 82 83 84 85 86 87 88 89 90 91 92 93 94 101 102 103 104 105 106 107 108 109 110 111 112 113 114 115 116 117 118 119 127 128 129 130 131 132 133 134 135 136 137 138 139 140 141 142 143 144 151 152 153 154 155 156 157 158 159 160 161 162 163 164 165 166 167 173 174 175 176 177 178 179 180 181 182 183 184 185 186 187 188 191 192 193 194 195 196 197 198 199 200 201 202 203 204 205 206 207 208 209 210 211 212 213 214 215 216
124 1 2 3 4 5 6 7 8 9 10 11 12 13 14 15 16 17 18 19 20 21 22 23 24 25 26 27 28 29 30 31 32 33 34 35 36 37 38 39 40 41 42 43 44 45 46 47 48 49 52 53 54 55 56 57 58 59 60 61 62 63 64 65 66 67 68 69 70 71 76 77 78 79 80 81 82 83 84 85 86 87 88 89 90 91 92 93 94 95 102 103 104 105 106 107 108 109 110 111 112 113 114 115 116 117 118 119 120 128 129 130 131 132 133 134 135 136 137 138 139 140 141 142 143 144 145 152 153 154 155 156 157 158 159 160 161 162 163 164 165 166 167 168 174 175 176 177 178 179 180 181 182 183 184 185 186 187 188 192 193 194 195 196 197 198 199 200 201 202 203 204 205 206 207 208 209 210 211 212 213 214 215 216
125 1 2 3 4 5 6 7 8 9 10 11 12 13 14 15 16 17 18 19 20 21 22 23 24 25 26 27 28 29 30 31 32 33 34 35 36 37 38 39 40 41 42 43 44 45 46 47 48 49 50 53 54 55 56 57 58 59 60 61 62 63 64 65 66 67 68 69 70 71 77 78 79 80 81 82 83 84 85 86 87 88 89 90 91 92 93 94 95 96 103 104 105 106 107 108 109 110 111 112 113 114 115 116 117 118 119 120 121 129 130 131 132 133 134 135 136 137 138 139 140 141 142 143 144 145 146 153 154 155 156 157 158 159 160 161 162 163 164 165 166 167 168 169 175 176 177 178 179 180 181 182 183 184 185 186 187 188 189 192 193 194 195 196 197 198 199 200 201 202 203 204 205 206 207 208 209 210 211 212 213 214 215 216
126 1 2 3 4 5 6 7 8 9 10 11 12 13 14 15 16 17 18 19 20 21 22 23 24 25 26 27 28 29 30 31 32 33 34 35 36 37 38 39 40 41 42 43 44 45 46 47 48 49 50 51 54 55 56 57 58 59 60 61 62 63 64 65 66 67 68 69 70 71 72 78 79 80 81 82 83 84 85 86 87 88 89 90 91 92 93 94 95 96 97 104 105 106 107 108 109 110 111 112 113 114 115 116 117 118 119 120 121 122 130 131 132 133 134 135 136 137 138 139 140 141 142 143 144 145 146 147 154 155 156 157 158 159 160 161 162 163 164 165 166 167 168 169 170 176 177 178 179 180 181 182 183 184 185 186 187 188 189 190 193 194 195 196 197 198 199 200 201 202 203 204 205 206 207 208 209 210 211 212 213 214 215 216
127 1 2 3 4 5 6 7 8 9 10 11 12 13 14 15 16 17 18 19 20 21 22 23 24 25 26 27 28 29 30 31 32 33 34 35 36 37 38 39 40 41 42 43 44 45 46 47 48 49 50 51 55 56 57 58 59 60 61 62 63 64 65 66 67 68 69 70 71 72 73 79 80 81 82 83 84 85 86 87 88 89 90 91 92 93 94 95 96 97 98 105 106 107 108 109 110 111 112 113 114 115 116 117 118 119 120 121 122 123 131 132 133 134 135 136 137 138 139 140 141 142 143 144 145 146 147 148 155 156 157 158 159 160 161 162 163 164 165 166 167 168 169 170 171 176 177 178 179 180 181 182 183 184 185 186 187 188 189 190 194 195 196 197 198 199 200 201 202 203 204 205 206 207 208 209 210 211 212 213 214 215 216
128 1 2 3 4 5 6 7 8 9 10 11 12 13 14 15 16 17 18 19 20 21 22 23 24 25 26 27 28 29 30 31 32 33 34 35 36 37 38 39 40 41 42 43 44 45 46 47 48 49 50 51 52 56 57 58 59 60 61 62 63 64 65 66 67 68 69 70 71 72 73 74 80 81 82 83 84 85 86 87 88 89 90 91 92 93 94 95 96 97 98 99 106 107 108 109 110 111 112 113 114 115 116 117 118 119 120 121 122 123 124 132 133 134 135 136 137 138 139 140 141 142 143 144 145 146 147 148 149 156 157 158 159 160 161 162 163 164 165 166 167 168 169 170 171 172 177 178 179 180 181 182 183 184 185 186 187 188 189 190 191 194 195 196 197 198 199 200 201 202 203 204 205 206 207 208 209 210 211 212 213 214 215 216
129 1 2 3 4 5 6 7 8 9 10 11 12 13 14 15 16 17 18 19 20 21 22 23 24 25 26 27 28 29 30 31 32 33 34 35 36 37 38 39 40 41 42 43 44 45 46 47 48 49 50 51 52 53 57 58 59 60 61 62 63 64 65 66 67 68 69 70 71 72 73 74 75 81 82 83 84 85 86 87 88 89 90 91 92 93 94 95 96 97 98 99 100 107 108 109 110 111 112 113 114 115 116 117 118 119 120 121 122 123 124 125 133 134 135 136 137 138 139 140 141 142 143 144 145 146 147 148 149 150 157 158 159 160 161 162 163 164 165 166 167 168 169 170 171 172 178 179 180 181 182 183 184 185 186 187 188 189 190 191 192 195 196 197 198 199 200 201 202 203 204 205 206 207 208 209 210 211 212 213 214 215 216
130 1 2 3 4 5 6 7 8 9 10 11 12 13 14 15 16 17 18 19 20 21 22 23 24 25 26 27 28 29 30 31 32 33 34 35 36 37 38 39 40 41 42 43 44 45 46 47 48 49 50 51 52 53 54 58 59 60 61 62 63 64 65 66 67 68 69 70 71 72 73 74 75 76 82 83 84 85 86 87 88 89 90 91 92 93 94 95 96 97 98 99 100 101 108 109 110 111 112 113 114 115 116 117 118 119 120 121 122 123 124 125 126 134 135 136 137 138 139 140 141 142 143 144 145 146 147 148 149 150 151 158 159 160 161 162 163 164 165 166 167 168 169 170 171 172 173 179 180 181 182 183 184 185 186 187 188 189 190 191 192 195 196 197 198 199 200 201 202 203 204 205 206 207 208 209 210 211 212 213 214 215 216
131 1 2 3 4 5 6 7 8 9 10 11 12 13 14 15 16 17 18 19 20 21 22 23 24 25 26 27 28 29 30 31 32 33 34 35 36 37 38 39 40 41 42 43 44 45 46 47 48 49 50 51 52 53 54 55 59 60 61 62 63 64 65 66 67 68 69 70 71 72 73 74 75 76 77 83 84 85 86 87 88 89 90 91 92 93 94 95 96 97 98 99 100 101 102 109 110 111 112 113 114 115 116 117 118 119 120 121 122 123 124 125 126 127 135 136 137 138 139 140 141 142 143 144 145 146 147 148 149 150 151 152 158 159 160 161 162 163 164 165 166 167 168 169 170 171 172 173 174 179 180 181 182 183 184 185 186 187 188 189 190 191 192 193 196 197 198 199 200 201 202 203 204 205 206 207 208 209 210 211 212 213 214 215 216
132 1 2 3 4 5 6 7 8 9 10 11 12 13 14 15 16 17 18 19 20 21 22 23 24 25 26 27 28 29 30 31 32 33 34 35 36 37 38 39 40 41 42 43 44 45 46 47 48 49 50 51 52 53 54 55 56 59 60 61 62 63 64 65 66 67 68 69 70 71 72 73 74 75 76 77 78 84 85 86 87 88 89 90 91 92 93 94 95 96 97 98 99 100 101 102 103 110 111 112 113 114 115 116 117 118 119 120 121 122 123 124 125 126 127 128 136 137 138 139 140 141 142 143 144 145 146 147 148 149 150 151 152 153 159 160 161 162 163 164 165 166 167 168 169 170 171 172 173 174 175 180 181 182 183 184 185 186 187 188 189 190 191 192 193 194 197 198 199 200 201 202 203 204 205 206 207 208 209 210 211 212 213 214 215 216
133 1 2 3 4 5 6 7 8 9 10 11 12 13 14 15 16 17 18 19 20 21 22 23 24 25 26 27 28 29 30 31 32 33 34 35 36 37 38 39 40 41 42 43 44 45 46 47 48 49 50 51 52 53 54 55 56 60 61 62 63 64 65 66 67 68 69 70 71 72 73 74 75 76 77 78 79 85 86 87 88 89 90 91 92 93 94 95 96 97 98 99 100 101 102 103 104 111 112 113 114 115 116 117 118 119 120 121 122 123 124 125 126 127 128 129 137 138 139 140 141 142 143 144 145 146 147 148 149 150 151 152 153 154 160 161 162 163 164 165 166 167 168 169 170 171 172 173 174 175 181 182 183 184 185 186 187 188 189 190 191 192 193 194 197 198 199 200 201 202 203 204 205 206 207 208 209 210 211 212 213 214 215 216
134 1 2 3 4 5 6 7 8 9 10 11 12 13 14 15 16 17 18 19 20 21 22 23 24 25 26 27 28 29 30 31 32 33 34 35 36 37 38 39 40 41 42 43 44 45 46 47 48 49 50 51 52 53 54 55 56 57 61 62 63 64 65 66 67 68 69 70 71 72 73 74 75 76 77 78 79 80 86 87 88 89 90 91 92 93 94 95 96 97 98 99 100 101 102 103 104 105 112 113 114 115 116 117 118 119 120 121 122 123 124 125 126 127 128 129 130 138 139 140 141 142 143 144 145 146 147 148 149 150 151 152 153 154 161 162 163 164 165 166 167 168 169 170 171 172 173 174 175 176 182 183 184 185 186 187 188 189 190 191 192 193 194 195 198 199 200 201 202 203 204 205 206 207 208 209 210 211 212 213 214 215 216
135 1 2 3 4 5 6 7 8 9 10 11 12 13 14 15 16 17 18 19 20 21 22 23 24 25 26 27 28 29 30 31 32 33 34 35 36 37 38 39 40 41 42 43 44 45 46 47 48 49 50 51 52 53 54 55 56 57 58 62 63 64 65 66 67 68 69 70 71 72 73 74 75 76 77 78 79 80 81 87 88 89 90 91 92 93 94 95 96 97 98 99 100 101 102 103 104 105 106 113 114 115 116 117 118 119 120 121 122 123 124 125 126 127 128 129 130 131 139 140 141 142 143 144 145 146 147 148 149 150 151 152 153 154 155 162 163 164 165 166 167 168 169 170 171 172 173 174 175 176 177 182 183 184 185 186 187 188 189 190 191 192 193 194 195 198 199 200 201 202 203 204 205 206 207 208 209 210 211 212 213 214 215 216
136 1 2 3 4 5 6 7 8 9 10 11 12 13 14 15 16 17 18 19 20 21 22 23 24 25 26 27 28 29 30 31 32 33 34 35 36 37 38 39 40 41 42 43 44 45 46 47 48 49 50 51 52 53 54 55 56 57 58 59 63 64 65 66 67 68 69 70 71 72 73 74 75 76 77 78 79 80 81 82 88 89 90 91 92 93 94 95 96 97 98 99 100 101 102 103 104 105 106 107 114 115 116 117 118 119 120 121 122 123 124 125 126 127 128 129 130 131 132 140 141 142 143 144 145 146 147 148 149 150 151 152 153 154 155 156 163 164 165 166 167 168 169 170 171 172 173 174 175 176 177 178 183 184 185 186 187 188 189 190 191 192 193 194 195 196 199 200 201 202 203 204 205 206 207 208 209 210 211 212 213 214 215 216
137 1 2 3 4 5 6 7 8 9 10 11 12 13 14 15 16 17 18 19 20 21 22 23 24 25 26 27 28 29 30 31 32 33 34 35 36 37 38 39 40 41 42 43 44 45 46 47 48 49 50 51 52 53 54 55 56 57 58 59 60 64 65 66 67 68 69 70 71 72 73 74 75 76 77 78 79 80 81 82 83 89 90 91 92 93 94 95 96 97 98 99 100 101 102 103 104 105 106 107 108 115 116 117 118 119 120 121 122 123 124 125 126 127 128 129 130 131 132 133 141 142 143 144 145 146 147 148 149 150 151 152 153 154 155 156 157 164 165 166 167 168 169 170 171 172 173 174 175 176 177 178 179 184 185 186 187 188 189 190 191 192 193 194 195 196 199 200 201 202 203 204 205 206 207 208 209 210 211 212 213 214 215 216
138 1 2 3 4 5 6 7 8 9 10 11 12 13 14 15 16 17 18 19 20 21 22 23 24 25 26 27 28 29 30 31 32 33 34 35 36 37 38 39 40 41 42 43 44 45 46 47 48 49 50 51 52 53 54 55 56 57 58 59 60 61 65 66 67 68 69 70 71 72 73 74 75 76 77 78 79 80 81 82 83 84 90 91 92 93 94 95 96 97 98 99 100 101 102 103 104 105 106 107 108 109 116 117 118 119 120 121 122 123 124 125 126 127 128 129 130 131 132 133 134 142 143 144 145 146 147 148 149 150 151 152 153 154 155 156 157 158 165 166 167 168 169 170 171 172 173 174 175 176 177 178 179 185 186 187 188 189 190 191 192 193 194 195 196 197 200 201 202 203 204 205 206 207 208 209 210 211 212 213 214 215 216
139 1 2 3 4 5 6 7 8 9 10 11 12 13 14 15 16 17 18 19 20 21 22 23 24 25 26 27 28 29 30 31 32 33 34 35 36 37 38 39 40 41 42 43 44 45 46 47 48 49 50 51 52 53 54 55 56 57 58 59 60 61 62 66 67 68 69 70 71 72 73 74 75 76 77 78 79 80 81 82 83 84 85 91 92 93 94 95 96 97 98 99 100 101 102 103 104 105 106 107 108 109 110 117 118 119 120 121 122 123 124 125 126 127 128 129 130 131 132 133 134 135 143 144 145 146 147 148 149 150 151 152 153 154 155 156 157 158 159 166 167 168 169 170 171 172 173 174 175 176 177 178 179 180 186 187 188 189 190 191 192 193 194 195 196 197 198 201 202 203 204 205 206 207 208 209 210 211 212 213 214 215 216
140 1 2 3 4 5 6 7 8 9 10 11 12 13 14 15 16 17 18 19 20 21 22 23 24 25 26 27 28 29 30 31 32 33 34 35 36 37 38 39 40 41 42 43 44 45 46 47 48 49 50 51 52 53 54 55 56 57 58 59 60 61 62 63 67 68 69 70 71 72 73 74 75 76 77 78 79 80 81 82 83 84 85 86 92 93 94 95 96 97 98 99 100 101 102 103 104 105 106 107 108 109 110 111 118 119 120 121 122 123 124 125 126 127 128 129 130 131 132 133 134 135 136 144 145 146 147 148 149 150 151 152 153 154 155 156 157 158 159 160 167 168 169 170 171 172 173 174 175 176 177 178 179 180 181 186 187 188 189 190 191 192 193 194 195 196 197 198 201 202 203 204 205 206 207 208 209 210 211 212 213 214 215 216
141 1 2 3 4 5 6 7 8 9 10 11 12 13 14 15 16 17 18 19 20 21 22 23 24 25 26 27 28 29 30 31 32 33 34 35 36 37 38 39 40 41 42 43 44 45 46 47 48 49 50 51 52 53 54 55 56 57 58 59 60 61 62 63 64 68 69 70 71 72 73 74 75 76 77 78 79 80 81 82 83 84 85 86 87 93 94 95 96 97 98 99 100 101 102 103 104 105 106 107 108 109 110 111 112 119 120 121 122 123 124 125 126 127 128 129 130 131 132 133 134 135 136 137 145 146 147 148 149 150 151 152 153 154 155 156 157 158 159 160 161 168 169 170 171 172 173 174 175 176 177 178 179 180 181 182 187 188 189 190 191 192 193 194 195 196 197 198 199 201 202 203 204 205 206 207 208 209 210 211 212 213 214 215 216
142 1 2 3 4 5 6 7 8 9 10 11 12 13 14 15 16 17 18 19 20 21 22 23 24 25 26 27 28 29 30 31 32 33 34 35 36 37 38 39 40 41 42 43 44 45 46 47 48 49 50 51 52 53 54 55 56 57 58 59 60 61 62 63 64 65 69 70 71 72 73 74 75 76 77 78 79 80 81 82 83 84 85 86 87 88 94 95 96 97 98 99 100 101 102 103 104 105 106 107 108 109 110 111 112 113 121 122 123 124 125 126 127 128 129 130 131 132 133 134 135 136 137 138 146 147 148 149 150 151 152 153 154 155 156 157 158 159 160 161 162 169 170 171 172 173 174 175 176 177 178 179 180 181 182 183 188 189 190 191 192 193 194 195 196 197 198 199 202 203 204 205 206 207 208 209 210 211 212 213 214 215 216
143 1 2 3 4 5 6 7 8 9 10 11 12 13 14 15 16 17 18 19 20 21 22 23 24 25 26 27 28 29 30 31 32 33 34 35 36 37 38 39 40 41 42 43 44 45 46 47 48 49 50 51 52 53 54 55 56 57 58 59 60 61 62 63 64 65 66 70 71 72 73 74 75 76 77 78 79 80 81 82 83 84 85 86 87 88 89 96 97 98 99 100 101 102 103 104 105 106 107 108 109 110 111 112 113 114 122 123 124 125 126 127 128 129 130 131 132 133 134 135 136 137 138 139 147 148 149 150 151 152 153 154 155 156 157 158 159 160 161 162 163 169 170 171 172 173 174 175 176 177 178 179 180 181 182 183 189 190 191 192 193 194 195 196 197 198 199 200 203 204 205 206 207 208 209 210 211 212 213 214 215 216
144 1 2 3 4 5 6 7 8 9 10 11 12 13 14 15 16 17 18 19 20 21 22 23 24 25 26 27 28 29 30 31 32 33 34 35 36 37 38 39 40 41 42 43 44 45 46 47 48 49 50 51 52 53 54 55 56 57 58 59 60 61 62 63 64 65 66 67 71 72 73 74 75 76 77 78 79 80 81 82 83 84 85 86 87 88 89 90 97 98 99 100 101 102 103 104 105 106 107 108 109 110 111 112 113 114 115 123 124 125 126 127 128 129 130 131 132 133 134 135 136 137 138 139 140 148 149 150 151 152 153 154 155 156 157 158 159 160 161 162 163 164 170 171 172 173 174 175 176 177 178 179 180 181 182 183 184 189 190 191 192 193 194 195 196 197 198 199 200 201 203 204 205 206 207 208 209 210 211 212 213 214 215 216
145 1 2 3 4 5 6 7 8 9 10 11 12 13 14 15 16 17 18 19 20 21 22 23 24 25 26 27 28 29 30 31 32 33 34 35 36 37 38 39 40 41 42 43 44 45 46 47 48 49 50 51 52 53 54 55 56 57 58 59 60 61 62 63 64 65 66 67 68 72 73 74 75 76 77 78 79 80 81 82 83 84 85 86 87 88 89 90 91 98 99 100 101 102 103 104 105 106 107 108 109 110 111 112 113 114 115 116 124 125 126 127 128 129 130 131 132 133 134 135 136 137 138 139 140 141 149 150 151 152 153 154 155 156 157 158 159 160 161 162 163 164 165 171 172 173 174 175 176 177 178 179 180 181 182 183 184 185 190 191 192 193 194 195 196 197 198 199 200 201 204 205 206 207 208 209 210 211 212 213 214 215 216
146 1 2 3 4 5 6 7 8 9 10 11 12 13 14 15 16 17 18 19 20 21 22 23 24 25 26 27 28 29 30 31 32 33 34 35 36 37 38 39 40 41 42 43 44 45 46 47 48 49 50 51 52 53 54 55 56 57 58 59 60 61 62 63 64 65 66 67 68 69 73 74 75 76 77 78 79 80 81 82 83 84 85 86 87 88 89 90 91 92 93 99 100 101 102 103 104 105 106 107 108 109 110 111 112 113 114 115 116 117 118 125 126 127 128 129 130 131 132 133 134 135 136 137 138 139 140 141 142 150 151 152 153 154 155 156 157 158 159 160 161 162 163 164 165 172 173 174 175 176 177 178 179 180 181 182 183 184 185 191 192 193 194 195 196 197 198 199 200 201 205 206 207 208 209 210 211 212 213 214 215 216
147 1 2 3 4 5 6 7 8 9 10 11 12 13 14 15 16 17 18 19 20 21 22 23 24 25 26 27 28 29 30 31 32 33 34 35 36 37 38 39 40 41 42 43 44 45 46 47 48 49 50 51 52 53 54 55 56 57 58 59 60 61 62 63 64 65 66 67 68 69 70 74 75 76 77 78 79 80 81 82 83 84 85 86 87 88 89 90 91 92 93 94 100 101 102 103 104 105 106 107 108 109 110 111 112 113 114 115 116 117 118 119 126 127 128 129 130 131 132 133 134 135 136 137 138 139 140 141 142 143 151 152 153 154 155 156 157 158 159 160 161 162 163 164 165 166 173 174 175 176 177 178 179 180 181 182 183 184 185 186 191 192 193 194 195 196 197 198 199 200 201 202 205 206 207 208 209 210 211 212 213 214 215 216
148 1 2 3 4 5 6 7 8 9 10 11 12 13 14 15 16 17 18 19 20 21 22 23 24 25 26 27 28 29 30 31 32 33 34 35 36 37 38 39 40 41 42 43 44 45 46 47 48 49 50 51 52 53 54 55 56 57 58 59 60 61 62 63 64 65 66 67 68 69 70 71 75 76 77 78 79 80 81 82 83 84 85 86 87 88 89 90 91 92 93 94 95 101 102 103 104 105 106 107 108 109 110 111 112 113 114 115 116 117 118 119 120 127 128 129 130 131 132 133 134 135 136 137 138 139 140 141 142 143 144 152 153 154 155 156 157 158 159 160 161 162 163 164 165 166 167 174 175 176 177 178 179 180 181 182 183 184 185 186 187 192 193 194 195 196 197 198 199 200 201 202 203 205 206 207 208 209 210 211 212 213 214 215 216
149 1 2 3 4 5 6 7 8 9 10 11 12 13 14 15 16 17 18 19 20 21 22 23 24 25 26 27 28 29 30 31 32 33 34 35 36 37 38 39 40 41 42 43 44 45 46 47 48 49 50 51 52 53 54 55 56 57 58 59 60 61 62 63 64 65 66 67 68 69 70 71 72 76 77 78 79 80 81 82 83 84 85 86 87 88 89 90 91 92 93 94 95 96 102 103 104 105 106 107 108 109 110 111 112 113 114 115 116 117 118 119 120 121 128 129 130 131 132 133 134 135 136 137 138 139 140 141 142 143 144 145 153 154 155 156 157 158 159 160 161 162 163 164 165 166 167 168 175 176 177 178 179 180 181 182 183 184 185 186 187 188 193 194 195 196 197 198 199 200 201 202 203 206 207 208 209 210 211 212 213 214 215 216
150 1 2 3 4 5 6 7 8 9 10 11 12 13 14 15 16 17 18 19 20 21 22 23 24 25 26 27 28 29 30 31 32 33 34 35 36 37 38 39 40 41 42 43 44 45 46 47 48 49 50 51 52 53 54 55 56 57 58 59 60 61 62 63 64 65 66 67 68 69 70 71 72 73 77 78 79 80 81 82 83 84 85 86 87 88 89 90 91 92 93 94 95 96 97 103 104 105 106 107 108 109 110 111 112 113 114 115 116 117 118 119 120 121 122 129 130 131 132 133 134 135 136 137 138 139 140 141 142 143 144 145 146 154 155 156 157 158 159 160 161 162 163 164 165 166 167 168 169 176 177 178 179 180 181 182 183 184 185 186 187 188 194 195 196 197 198 199 200 201 202 203 204 206 207 208 209 210 211 212 213 214 215 216
151 1 2 3 4 5 6 7 8 9 10 11 12 13 14 15 16 17 18 19 20 21 22 23 24 25 26 27 28 29 30 31 32 33 34 35 36 37 38 39 40 41 42 43 44 45 46 47 48 49 50 51 52 53 54 55 56 57 58 59 60 61 62 63 64 65 66 67 68 69 70 71 72 73 74 78 79 80 81 82 83 84 85 86 87 88 89 90 91 92 93 94 95 96 97 98 104 105 106 107 108 109 110 111 112 113 114 115 116 117 118 119 120 121 122 123 130 131 132 133 134 135 136 137 138 139 140 141 142 143 144 145 146 147 155 156 157 158 159 160 161 162 163 164 165 166 167 168 169 170 176 177 178 179 180 181 182 183 184 185 186 187 188 189 194 195 196 197 198 199 200 201 202 203 204 207 208 209 210 211 212 213 214 215 216
152 1 2 3 4 5 6 7 8 9 10 11 12 13 14 15 16 17 18 19 20 21 22 23 24 25 26 27 28 29 30 31 32 33 34 35 36 37 38 39 40 41 42 43 44 45 46 47 48 49 50 51 52 53 54 55 56 57 58 59 60 61 62 63 64 65 66 67 68 69 70 71 72 73 74 75 79 80 81 82 83 84 85 86 87 88 89 90 91 92 93 94 95 96 97 98 99 105 106 107 108 109 110 111 112 113 114 115 116 117 118 119 120 121 122 123 124 131 132 133 134 135 136 137 138 139 140 141 142 143 144 145 146 147 148 156 157 158 159 160 161 162 163 164 165 166 167 168 169 170 171 177 178 179 180 181 182 183 184 185 186 187 188 189 190 195 196 197 198 199 200 201 202 203 204 205 207 208 209 210 211 212 213 214 215 216
153 1 2 3 4 5 6 7 8 9 10 11 12 13 14 15 16 17 18 19 20 21 22 23 24 25 26 27 28 29 30 31 32 33 34 35 36 37 38 39 40 41 42 43 44 45 46 47 48 49 50 51 52 53 54 55 56 57 58 59 60 61 62 63 64 65 66 67 68 69 70 71 72 73 74 75 76 80 81 82 83 84 85 86 87 88 89 90 91 92 93 94 95 96 97 98 99 100 106 107 108 109 110 111 112 113 114 115 116 117 118 119 120 121 122 123 124 125 132 133 134 135 136 137 138 139 140 141 142 143 144 145 146 147 148 149 157 158 159 160 161 162 163 164 165 166 167 168 169 170 171 172 178 179 180 181 182 183 184 185 186 187 188 189 190 196 197 198 199 200 201 202 203 204 205 208 209 210 211 212 213 214 215 216
154 1 2 3 4 5 6 7 8 9 10 11 12 13 14 15 16 17 18 19 20 21 22 23 24 25 26 27 28 29 30 31 32 33 34 35 36 37 38 39 40 41 42 43 44 45 46 47 48 49 50 51 52 53 54 55 56 57 58 59 60 61 62 63 64 65 66 67 68 69 70 71 72 73 74 75 76 77 81 82 83 84 85 86 87 88 89 90 91 92 93 94 95 96 97 98 99 100 101 107 108 109 110 111 112 113 114 115 116 117 118 119 120 121 122 123 124 125 126 133 134 135 136 137 138 139 140 141 142 143 144 145 146 147 148 149 150 158 159 160 161 162 163 164 165 166 167 168 169 170 171 172 179 180 181 182 183 184 185 186 187 188 189 190 191 196 197 198 199 200 201 202 203 204 205 208 209 210 211 212 213 214 215 216
155 1 2 3 4 5 6 7 8 9 10 11 12 13 14 15 16 17 18 19 20 21 22 23 24 25 26 27 28 29 30 31 32 33 34 35 36 37 38 39 40 41 42 43 44 45 46 47 48 49 50 51 52 53 54 55 56 57 58 59 60 61 62 63 64 65 66 67 68 69 70 71 72 73 74 75 76 77 78 82 83 84 85 86 87 88 89 90 91 92 93 94 95 96 97 98 99 100 101 102 108 109 110 111 112 113 114 115 116 117 118 119 120 121 122 123 124 125 126 127 135 136 137 138 139 140 141 142 143 144 145 146 147 148 149 150 151 159 160 161 162 163 164 165 166 167 168 169 170 171 172 173 180 181 182 183 184 185 186 187 188 189 190 191 192 197 198 199 200 201 202 203 204 205 206 209 210 211 212 213 214 215 216
156 1 2 3 4 5 6 7 8 9 10 11 12 13 14 15 16 17 18 19 20 21 22 23 24 25 26 27 28 29 30 31 32 33 34 35 36 37 38 39 40 41 42 43 44 45 46 47 48 49 50 51 52 53 54 55 56 57 58 59 60 61 62 63 64 65 66 67 68 69 70 71 72 73 74 75 76 77 78 79 83 84 85 86 87 88 89 90 91 92 93 94 95 96 97 98 99 100 101 102 103 110 111 112 113 114 115 116 117 118 119 120 121 122 123 124 125 126 127 128 136 137 138 139 140 141 142 143 144 145 146 147 148 149 150 151 152 160 161 162 163 164 165 166 167 168 169 170 171 172 173 174 181 182 183 184 185 186 187 188 189 190 191 192 198 199 200 201 202 203 204 205 206 209 210 211 212 213 214 215 216
157 1 2 3 4 5 6 7 8 9 10 11 12 13 14 15 16 17 18 19 20 21 22 23 24 25 26 27 28 29 30 31 32 33 34 35 36 37 38 39 40 41 42 43 44 45 46 47 48 49 50 51 52 53 54 55 56 57 58 59 60 61 62 63 64 65 66 67 68 69 70 71 72 73 74 75 76 77 78 79 80 84 85 86 87 88 89 90 91 92 93 94 95 96 97 98 99 100 101 102 103 104 105 111 112 113 114 115 116 117 118 119 120 121 122 123 124 125 126 127 128 129 137 138 139 140 141 142 143 144 145 146 147 148 149 150 151 152 153 161 162 163 164 165 166 167 168 169 170 171 172 173 174 175 182 183 184 185 186 187 188 189 190 191 192 193 198 199 200 201 202 203 204 205 206 207 210 211 212 213 214 215 216
158 1 2 3 4 5 6 7 8 9 10 11 12 13 14 15 16 17 18 19 20 21 22 23 24 25 26 27 28 29 30 31 32 33 34 35 36 37 38 39 40 41 42 43 44 45 46 47 48 49 50 51 52 53 54 55 56 57 58 59 60 61 62 63 64 65 66 67 68 69 70 71 72 73 74 75 76 77 78 79 80 81 85 86 87 88 89 90 91 92 93 94 95 96 97 98 99 100 101 102 103 104 105 106 112 113 114 115 116 117 118 119 120 121 122 123 124 125 126 127 128 129 130 131 138 139 140 141 142 143 144 145 146 147 148 149 150 151 152 153 154 162 163 164 165 166 167 168 169 170 171 172 173 174 175 176 183 184 185 186 187 188 189 190 191 192 193 194 199 200 201 202 203 204 205 206 207 210 211 212 213 214 215 216
159 1 2 3 4 5 6 7 8 9 10 11 12 13 14 15 16 17 18 19 20 21 22 23 24 25 26 27 28 29 30 31 32 33 34 35 36 37 38 39 40 41 42 43 44 45 46 47 48 49 50 51 52 53 54 55 56 57 58 59 60 61 62 63 64 65 66 67 68 69 70 71 72 73 74 75 76 77 78 79 80 81 82 87 88 89 90 91 92 93 94 95 96 97 98 99 100 101 102 103 104 105 106 107 113 114 115 116 117 118 119 120 121 122 123 124 125 126 127 128 129 130 131 132 139 140 141 142 143 144 145 146 147 148 149 150 151 152 153 154 155 163 164 165 166 167 168 169 170 171 172 173 174 175 176 177 183 184 185 186 187 188 189 190 191 192 193 194 195 199 200 201 202 203 204 205 206 207 208 210 211 212 213 214 215 216
160 1 2 3 4 5 6 7 8 9 10 11 12 13 14 15 16 17 18 19 20 21 22 23 24 25 26 27 28 29 30 31 32 33 34 35 36 37 38 39 40 41 42 43 44 45 46 47 48 49 50 51 52 53 54 55 56 57 58 59 60 61 62 63 64 65 66 67 68 69 70 71 72 73 74 75 76 77 78 79 80 81 82 83 88 89 90 91 92 93 94 95 96 97 98 99 100 101 102 103 104 105 106 107 108 114 115 116 117 118 119 120 121 122 123 124 125 126 127 128 129 130 131 132 133 140 141 142 143 144 145 146 147 148 149 150 151 152 153 154 155 156 164 165 166 167 168 169 170 171 172 173 174 175 176 177 178 184 185 186 187 188 189 190 191 192 193 194 195 200 201 202 203 204 205 206 207 208 211 212 213 214 215 216
161 1 2 3 4 5 6 7 8 9 10 11 12 13 14 15 16 17 18 19 20 21 22 23 24 25 26 27 28 29 30 31 32 33 34 35 36 37 38 39 40 41 42 43 44 45 46 47 48 49 50 51 52 53 54 55 56 57 58 59 60 61 62 63 64 65 66 67 68 69 70 71 72 73 74 75 76 77 78 79 80 81 82 83 84 85 89 90 91 92 93 94 95 96 97 98 99 100 101 102 103 104 105 106 107 108 109 115 116 117 118 119 120 121 122 123 124 125 126 127 128 129 130 131 132 133 134 141 142 143 144 145 146 147 148 149 150 151 152 153 154 155 156 157 165 166 167 168 169 170 171 172 173 174 175 176 177 178 185 186 187 188 189 190 191 192 193 194 195 196 201 202 203 204 205 206 207 208 211 212 213 214 215 216
162 1 2 3 4 5 6 7 8 9 10 11 12 13 14 15 16 17 18 19 20 21 22 23 24 25 26 27 28 29 30 31 32 33 34 35 36 37 38 39 40 41 42 43 44 45 46 47 48 49 50 51 52 53 54 55 56 57 58 59 60 61 62 63 64 65 66 67 68 69 70 71 72 73 74 75 76 77 78 79 80 81 82 83 84 85 86 90 91 92 93 94 95 96 97 98 99 100 101 102 103 104 105 106 107 108 109 110 116 117 118 119 120 121 122 123 124 125 126 127 128 129 130 131 132 133 134 135 142 143 144 145 146 147 148 149 150 151 152 153 154 155 156 157 158 166 167 168 169 170 171 172 173 174 175 176 177 178 179 186 187 188 189 190 191 192 193 194 195 196 201 202 203 204 205 206 207 208 209 212 213 214 215 216
163 1 2 3 4 5 6 7 8 9 10 11 12 13 14 15 16 17 18 19 20 21 22 23 24 25 26 27 28 29 30 31 32 33 34 35 36 37 38 39 40 41 42 43 44 45 46 47 48 49 50 51 52 53 54 55 56 57 58 59 60 61 62 63 64 65 66 67 68 69 70 71 72 73 74 75 76 77 78 79 80 81 82 83 84 85 86 87 91 92 93 94 95 96 97 98 99 100 101 102 103 104 105 106 107 108 109 110 111 117 118 119 120 121 122 123 124 125 126 127 128 129 130 131 132 133 134 135 136 143 144 145 146 147 148 149 150 151 152 153 154 155 156 157 158 159 167 168 169 170 171 172 173 174 175 176 177 178 179 180 187 188 189 190 191 192 193 194 195 196 197 202 203 204 205 206 207 208 209 212 213 214 215 216
164 1 2 3 4 5 6 7 8 9 10 11 12 13 14 15 16 17 18 19 20 21 22 23 24 25 26 27 28 29 30 31 32 33 34 35 36 37 38 39 40 41 42 43 44 45 46 47 48 49 50 51 52 53 54 55 56 57 58 59 60 61 62 63 64 65 66 67 68 69 70 71 72 73 74 75 76 77 78 79 80 81 82 83 84 85 86 87 88 92 93 94 95 96 97 98 99 100 101 102 103 104 105 106 107 108 109 110 111 112 119 120 121 122 123 124 125 126 127 128 129 130 131 132 133 134 135 136 137 144 145 146 147 148 149 150 151 152 153 154 155 156 157 158 159 160 168 169 170 171 172 173 174 175 176 177 178 179 180 181 187 188 189 190 191 192 193 194 195 196 197 198 203 204 205 206 207 208 209 210 212 213 214 215 216
165 1 2 3 4 5 6 7 8 9 10 11 12 13 14 15 16 17 18 19 20 21 22 23 24 25 26 27 28 29 30 31 32 33 34 35 36 37 38 39 40 41 42 43 44 45 46 47 48 49 50 51 52 53 54 55 56 57 58 59 60 61 62 63 64 65 66 67 68 69 70 71 72 73 74 75 76 77 78 79 80 81 82 83 84 85 86 87 88 89 93 94 95 96 97 98 99 100 101 102 103 104 105 106 107 108 109 110 111 112 113 120 121 122 123 124 125 126 127 128 129 130 131 132 133 134 135 136 137 138 145 146 147 148 149 150 151 152 153 154 155 156 157 158 159 160 161 169 170 171 172 173 174 175 176 177 178 179 180 181 182 188 189 190 191 192 193 194 195 196 197 198 203 204 205 206 207 208 209 210 213 214 215 216
166 1 2 3 4 5 6 7 8 9 10 11 12 13 14 15 16 17 18 19 20 21 22 23 24 25 26 27 28 29 30 31 32 33 34 35 36 37 38 39 40 41 42 43 44 45 46 47 48 49 50 51 52 53 54 55 56 57 58 59 60 61 62 63 64 65 66 67 68 69 70 71 72 73 74 75 76 77 78 79 80 81 82 83 84 85 86 87 88 89 90 91 94 95 96 97 98 99 100 101 102 103 104 105 106 107 108 109 110 111 112 113 114 115 121 122 123 124 125 126 127 128 129 130 131 132 133 134 135 136 137 138 139 147 148 149 150 151 152 153 154 155 156 157 158 159 160 161 162 170 171 172 173 174 175 176 177 178 179 180 181 182 189 190 191 192 193 194 195 196 197 198 199 204 205 206 207 208 209 210 213 214 215 216
167 1 2 3 4 5 6 7 8 9 10 11 12 13 14 15 16 17 18 19 20 21 22 23 24 25 26 27 28 29 30 31 32 33 34 35 36 37 38 39 40 41 42 43 44 45 46 47 48 49 50 51 52 53 54 55 56 57 58 59 60 61 62 63 64 65 66 67 68 69 70 71 72 73 74 75 76 77 78 79 80 81 82 83 84 85 86 87 88 89 90 91 92 95 96 97 98 99 100 101 102 103 104 105 106 107 108 109 110 111 112 113 114 115 116 122 123 124 125 126 127 128 129 130 131 132 133 134 135 136 137 138 139 140 148 149 150 151 152 153 154 155 156 157 158 159 160 161 162 163 171 172 173 174 175 176 177 178 179 180 181 182 183 190 191 192 193 194 195 196 197 198 199 204 205 206 207 208 209 210 211 213 214 215 216
168 1 2 3 4 5 6 7 8 9 10 11 12 13 14 15 16 17 18 19 20 21 22 23 24 25 26 27 28 29 30 31 32 33 34 35 36 37 38 39 40 41 42 43 44 45 46 47 48 49 50 51 52 53 54 55 56 57 58 59 60 61 62 63 64 65 66 67 68 69 70 71 72 73 74 75 76 77 78 79 80 81 82 83 84 85 86 87 88 89 90 91 92 93 97 98 99 100 101 102 103 104 105 106 107 108 109 110 111 112 113 114 115 116 117 124 125 126 127 128 129 130 131 132 133 134 135 136 137 138 139 140 141 149 150 151 152 153 154 155 156 157 158 159 160 161 162 163 164 172 173 174 175 176 177 178 179 180 181 182 183 184 191 192 193 194 195 196 197 198 199 200 205 206 207 208 209 210 211 214 215 216
169 1 2 3 4 5 6 7 8 9 10 11 12 13 14 15 16 17 18 19 20 21 22 23 24 25 26 27 28 29 30 31 32 33 34 35 36 37 38 39 40 41 42 43 44 45 46 47 48 49 50 51 52 53 54 55 56 57 58 59 60 61 62 63 64 65 66 67 68 69 70 71 72 73 74 75 76 77 78 79 80 81 82 83 84 85 86 87 88 89 90 91 92 93 94 98 99 100 101 102 103 104 105 106 107 108 109 110 111 112 113 114 115 116 117 118 125 126 127 128 129 130 131 132 133 134 135 136 137 138 139 140 141 142 143 150 151 152 153 154 155 156 157 158 159 160 161 162 163 164 165 173 174 175 176 177 178 179 180 181 182 183 184 185 192 193 194 195 196 197 198 199 200 201 206 207 208 209 210 211 214 215 216
170 1 2 3 4 5 6 7 8 9 10 11 12 13 14 15 16 17 18 19 20 21 22 23 24 25 26 27 28 29 30 31 32 33 34 35 36 37 38 39 40 41 42 43 44 45 46 47 48 49 50 51 52 53 54 55 56 57 58 59 60 61 62 63 64 65 66 67 68 69 70 71 72 73 74 75 76 77 78 79 80 81 82 83 84 85 86 87 88 89 90 91 92 93 94 95 99 100 101 102 103 104 105 106 107 108 109 110 111 112 113 114 115 116 117 118 119 126 127 128 129 130 131 132 133 134 135 136 137 138 139 140 141 142 143 144 151 152 153 154 155 156 157 158 159 160 161 162 163 164 165 166 174 175 176 177 178 179 180 181 182 183 184 185 186 192 193 194 195 196 197 198 199 200 201 206 207 208 209 210 211 212 214 215 216
171 1 2 3 4 5 6 7 8 9 10 11 12 13 14 15 16 17 18 19 20 21 22 23 24 25 26 27 28 29 30 31 32 33 34 35 36 37 38 39 40 41 42 43 44 45 46 47 48 49 50 51 52 53 54 55 56 57 58 59 60 61 62 63 64 65 66 67 68 69 70 71 72 73 74 75 76 77 78 79 80 81 82 83 84 85 86 87 88 89 90 91 92 93 94 95 96 101 102 103 104 105 106 107 108 109 110 111 112 113 114 115 116 117 118 119 120 121 127 128 129 130 131 132 133 134 135 136 137 138 139 140 141 142 143 144 145 152 153 154 155 156 157 158 159 160 161 162 163 164 165 166 167 175 176 177 178 179 180 181 182 183 184 185 186 187 193 194 195 196 197 198 199 200 201 202 207 208 209 210 211 212 214 215 216
172 1 2 3 4 5 6 7 8 9 10 11 12 13 14 15 16 17 18 19 20 21 22 23 24 25 26 27 28 29 30 31 32 33 34 35 36 37 38 39 40 41 42 43 44 45 46 47 48 49 50 51 52 53 54 55 56 57 58 59 60 61 62 63 64 65 66 67 68 69 70 71 72 73 74 75 76 77 78 79 80 81 82 83 84 85 86 87 88 89 90 91 92 93 94 95 96 97 102 103 104 105 106 107 108 109 110 111 112 113 114 115 116 117 118 119 120 121 122 128 129 130 131 132 133 134 135 136 137 138 139 140 141 142 143 144 145 146 153 154 155 156 157 158 159 160 161 162 163 164 165 166 167 168 176 177 178 179 180 181 182 183 184 185 186 187 194 195 196 197 198 199 200 201 202 207 208 209 210 211 212 215 216
173 1 2 3 4 5 6 7 8 9 10 11 12 13 14 15 16 17 18 19 20 21 22 23 24 25 26 27 28 29 30 31 32 33 34 35 36 37 38 39 40 41 42 43 44 45 46 47 48 49 50 51 52 53 54 55 56 57 58 59 60 61 62 63 64 65 66 67 68 69 70 71 72 73 74 75 76 77 78 79 80 81 82 83 84 85 86 87 88 89 90 91 92 93 94 95 96 97 98 99 103 104 105 106 107 108 109 110 111 112 113 114 115 116 117 118 119 120 121 122 123 130 131 132 133 134 135 136 137 138 139 140 141 142 143 144 145 146 147 155 156 157 158 159 160 161 162 163 164 165 166 167 168 169 177 178 179 180 181 182 183 184 185 186 187 188 195 196 197 198 199 200 201 202 203 208 209 210 211 212 213 215 216
174 1 2 3 4 5 6 7 8 9 10 11 12 13 14 15 16 17 18 19 20 21 22 23 24 25 26 27 28 29 30 31 32 33 34 35 36 37 38 39 40 41 42 43 44 45 46 47 48 49 50 51 52 53 54 55 56 57 58 59 60 61 62 63 64 65 66 67 68 69 70 71 72 73 74 75 76 77 78 79 80 81 82 83 84 85 86 87 88 89 90 91 92 93 94 95 96 97 98 99 100 104 105 106 107 108 109 110 111 112 113 114 115 116 117 118 119 120 121 122 123 124 131 132 133 134 135 136 137 138 139 140 141 142 143 144 145 146 147 148 156 157 158 159 160 161 162 163 164 165 166 167 168 169 170 178 179 180 181 182 183 184 185 186 187 188 189 196 197 198 199 200 201 202 203 204 208 209 210 211 212 213 215 216
175 1 2 3 4 5 6 7 8 9 10 11 12 13 14 15 16 17 18 19 20 21 22 23 24 25 26 27 28 29 30 31 32 33 34 35 36 37 38 39 40 41 42 43 44 45 46 47 48 49 50 51 52 53 54 55 56 57 58 59 60 61 62 63 64 65 66 67 68 69 70 71 72 73 74 75 76 77 78 79 80 81 82 83 84 85 86 87 88 89 90 91 92 93 94 95 96 97 98 99 100 101 105 106 107 108 109 110 111 112 113 114 115 116 117 118 119 120 121 122 123 124 125 132 133 134 135 136 137 138 139 140 141 142 143 144 145 146 147 148 149 157 158 159 160 161 162 163 164 165 166 167 168 169 170 171 179 180 181 182 183 184 185 186 187 188 189 190 196 197 198 199 200 201 202 203 204 209 210 211 212 213 215 216
176 1 2 3 4 5 6 7 8 9 10 11 12 13 14 15 16 17 18 19 20 21 22 23 24 25 26 27 28 29 30 31 32 33 34 35 36 37 38 39 40 41 42 43 44 45 46 47 48 49 50 51 52 53 54 55 56 57 58 59 60 61 62 63 64 65 66 67 68 69 70 71 72 73 74 75 76 77 78 79 80 81 82 83 84 85 86 87 88 89 90 91 92 93 94 95 96 97 98 99 100 101 102 103 107 108 109 110 111 112 113 114 115 116 117 118 119 120 121 122 123 124 125 126 127 134 135 136 137 138 139 140 141 142 143 144 145 146 147 148 149 150 151 158 159 160 161 162 163 164 165 166 167 168 169 170 171 172 180 181 182 183 184 185 186 187 188 189 190 191 197 198 199 200 201 202 203 204 205 209 210 211 212 213 216
177 1 2 3 4 5 6 7 8 9 10 11 12 13 14 15 16 17 18 19 20 21 22 23 24 25 26 27 28 29 30 31 32 33 34 35 36 37 38 39 40 41 42 43 44 45 46 47 48 49 50 51 52 53 54 55 56 57 58 59 60 61 62 63 64 65 66 67 68 69 70 71 72 73 74 75 76 77 78 79 80 81 82 83 84 85 86 87 88 89 90 91 92 93 94 95 96 97 98 99 100 101 102 103 104 108 109 110 111 112 113 114 115 116 117 118 119 120 121 122 123 124 125 126 127 128 135 136 137 138 139 140 141 142 143 144 145 146 147 148 149 150 151 152 159 160 161 162 163 164 165 166 167 168 169 170 171 172 173 181 182 183 184 185 186 187 188 189 190 191 198 199 200 201 202 203 204 205 210 211 212 213 214 216
178 1 2 3 4 5 6 7 8 9 10 11 12 13 14 15 16 17 18 19 20 21 22 23 24 25 26 27 28 29 30 31 32 33 34 35 36 37 38 39 40 41 42 43 44 45 46 47 48 49 50 51 52 53 54 55 56 57 58 59 60 61 62 63 64 65 66 67 68 69 70 71 72 73 74 75 76 77 78 79 80 81 82 83 84 85 86 87 88 89 90 91 92 93 94 95 96 97 98 99 100 101 102 103 104 105 109 110 111 112 113 114 115 116 117 118 119 120 121 122 123 124 125 126 127 128 129 136 137 138 139 140 141 142 143 144 145 146 147 148 149 150 151 152 153 160 161 162 163 164 165 166 167 168 169 170 171 172 173 174 182 183 184 185 186 187 188 189 190 191 192 199 200 201 202 203 204 205 206 210 211 212 213 214 216
179 1 2 3 4 5 6 7 8 9 10 11 12 13 14 15 16 17 18 19 20 21 22 23 24 25 26 27 28 29 30 31 32 33 34 35 36 37 38 39 40 41 42 43 44 45 46 47 48 49 50 51 52 53 54 55 56 57 58 59 60 61 62 63 64 65 66 67 68 69 70 71 72 73 74 75 76 77 78 79 80 81 82 83 84 85 86 87 88 89 90 91 92 93 94 95 96 97 98 99 100 101 102 103 104 105 106 110 111 112 113 114 115 116 117 118 119 120 121 122 123 124 125 126 127 128 129 130 131 137 138 139 140 141 142 143 144 145 146 147 148 149 150 151 152 153 154 162 163 164 165 166 167 168 169 170 171 172 173 174 175 183 184 185 186 187 188 189 190 191 192 193 199 200 201 202 203 204 205 206 211 212 213 214 216
180 1 2 3 4 5 6 7 8 9 10 11 12 13 14 15 16 17 18 19 20 21 22 23 24 25 26 27 28 29 30 31 32 33 34 35 36 37 38 39 40 41 42 43 44 45 46 47 48 49 50 51 52 53 54 55 56 57 58 59 60 61 62 63 64 65 66 67 68 69 70 71 72 73 74 75 76 77 78 79 80 81 82 83 84 85 86 87 88 89 90 91 92 93 94 95 96 97 98 99 100 101 102 103 104 105 106 107 108 112 113 114 115 116 117 118 119 120 121 122 123 124 125 126 127 128 129 130 131 132 139 140 141 142 143 144 145 146 147 148 149 150 151 152 153 154 155 163 164 165 166 167 168 169 170 171 172 173 174 175 176 184 185 186 187 188 189 190 191 192 193 194 200 201 202 203 204 205 206 207 211 212 213 214 216
181 1 2 3 4 5 6 7 8 9 10 11 12 13 14 15 16 17 18 19 20 21 22 23 24 25 26 27 28 29 30 31 32 33 34 35 36 37 38 39 40 41 42 43 44 45 46 47 48 49 50 51 52 53 54 55 56 57 58 59 60 61 62 63 64 65 66 67 68 69 70 71 72 73 74 75 76 77 78 79 80 81 82 83 84 85 86 87 88 89 90 91 92 93 94 95 96 97 98 99 100 101 102 103 104 105 106 107 108 109 113 114 115 116 117 118 119 120 121 122 123 124 125 126 127 128 129 130 131 132 133 140 141 142 143 144 145 146 147 148 149 150 151 152 153 154 155 156 164 165 166 167 168 169 170 171 172 173 174 175 176 177 185 186 187 188 189 190 191 192 193 194 195 201 202 203 204 205 206 207 212 213 214 216
182 1 2 3 4 5 6 7 8 9 10 11 12 13 14 15 16 17 18 19 20 21 22 23 24 25 26 27 28 29 30 31 32 33 34 35 36 37 38 39 40 41 42 43 44 45 46 47 48 49 50 51 52 53 54 55 56 57 58 59 60 61 62 63 64 65 66 67 68 69 70 71 72 73 74 75 76 77 78 79 80 81 82 83 84 85 86 87 88 89 90 91 92 93 94 95 96 97 98 99 100 101 102 103 104 105 106 107 108 109 110 111 114 115 116 117 118 119 120 121 122 123 124 125 126 127 128 129 130 131 132 133 134 135 141 142 143 144 145 146 147 148 149 150 151 152 153 154 155 156 157 165 166 167 168 169 170 171 172 173 174 175 176 177 178 186 187 188 189 190 191 192 193 194 195 202 203 204 205 206 207 208 212 213 214 215
183 1 2 3 4 5 6 7 8 9 10 11 12 13 14 15 16 17 18 19 20 21 22 23 24 25 26 27 28 29 30 31 32 33 34 35 36 37 38 39 40 41 42 43 44 45 46 47 48 49 50 51 52 53 54 55 56 57 58 59 60 61 62 63 64 65 66 67 68 69 70 71 72 73 74 75 76 77 78 79 80 81 82 83 84 85 86 87 88 89 90 91 92 93 94 95 96 97 98 99 100 101 102 103 104 105 106 107 108 109 110 111 112 116 117 118 119 120 121 122 123 124 125 126 127 128 129 130 131 132 133 134 135 136 142 143 144 145 146 147 148 149 150 151 152 153 154 155 156 157 158 159 167 168 169 170 171 172 173 174 175 176 177 178 179 187 188 189 190 191 192 193 194 195 196 202 203 204 205 206 207 208 213 214 215
184 1 2 3 4 5 6 7 8 9 10 11 12 13 14 15 16 17 18 19 20 21 22 23 24 25 26 27 28 29 30 31 32 33 34 35 36 37 38 39 40 41 42 43 44 45 46 47 48 49 50 51 52 53 54 55 56 57 58 59 60 61 62 63 64 65 66 67 68 69 70 71 72 73 74 75 76 77 78 79 80 81 82 83 84 85 86 87 88 89 90 91 92 93 94 95 96 97 98 99 100 101 102 103 104 105 106 107 108 109 110 111 112 113 117 118 119 120 121 122 123 124 125 126 127 128 129 130 131 132 133 134 135 136 137 144 145 146 147 148 149 150 151 152 153 154 155 156 157 158 159 160 168 169 170 171 172 173 174 175 176 177 178 179 180 188 189 190 191 192 193 194 195 196 197 203 204 205 206 207 208 209 213 214 215
185 1 2 3 4 5 6 7 8 9 10 11 12 13 14 15 16 17 18 19 20 21 22 23 24 25 26 27 28 29 30 31 32 33 34 35 36 37 38 39 40 41 42 43 44 45 46 47 48 49 50 51 52 53 54 55 56 57 58 59 60 61 62 63 64 65 66 67 68 69 70 71 72 73 74 75 76 77 78 79 80 81 82 83 84 85 86 87 88 89 90 91 92 93 94 95 96 97 98 99 100 101 102 103 104 105 106 107 108 109 110 111 112 113 114 115 118 119 120 121 122 123 124 125 126 127 128 129 130 131 132 133 134 135 136 137 138 145 146 147 148 149 150 151 152 153 154 155 156 157 158 159 160 161 169 170 171 172 173 174 175 176 177 178 179 180 181 189 190 191 192 193 194 195 196 197 204 205 206 207 208 209 214 215
186 1 2 3 4 5 6 7 8 9 10 11 12 13 14 15 16 17 18 19 20 21 22 23 24 25 26 27 28 29 30 31 32 33 34 35 36 37 38 39 40 41 42 43 44 45 46 47 48 49 50 51 52 53 54 55 56 57 58 59 60 61 62 63 64 65 66 67 68 69 70 71 72 73 74 75 76 77 78 79 80 81 82 83 84 85 86 87 88 89 90 91 92 93 94 95 96 97 98 99 100 101 102 103 104 105 106 107 108 109 110 111 112 113 114 115 116 120 121 122 123 124 125 126 127 128 129 130 131 132 133 134 135 136 137 138 139 140 147 148 149 150 151 152 153 154 155 156 157 158 159 160 161 162 170 171 172 173 174 175 176 177 178 179 180 181 182 190 191 192 193 194 195 196 197 198 205 206 207 208 209 214 215
187 1 2 3 4 5 6 7 8 9 10 11 12 13 14 15 16 17 18 19 20 21 22 23 24 25 26 27 28 29 30 31 32 33 34 35 36 37 38 39 40 41 42 43 44 45 46 47 48 49 50 51 52 53 54 55 56 57 58 59 60 61 62 63 64 65 66 67 68 69 70 71 72 73 74 75 76 77 78 79 80 81 82 83 84 85 86 87 88 89 90 91 92 93 94 95 96 97 98 99 100 101 102 103 104 105 106 107 108 109 110 111 112 113 114 115 116 117 122 123 124 125 126 127 128 129 130 131 132 133 134 135 136 137 138 139 140 141 148 149 150 151 152 153 154 155 156 157 158 159 160 161 162 163 164 171 172 173 174 175 176 177 178 179 180 181 182 183 191 192 193 194 195 196 197 198 199 205 206 207 208 209 210 214 215
188 1 2 3 4 5 6 7 8 9 10 11 12 13 14 15 16 17 18 19 20 21 22 23 24 25 26 27 28 29 30 31 32 33 34 35 36 37 38 39 40 41 42 43 44 45 46 47 48 49 50 51 52 53 54 55 56 57 58 59 60 61 62 63 64 65 66 67 68 69 70 71 72 73 74 75 76 77 78 79 80 81 82 83 84 85 86 87 88 89 90 91 92 93 94 95 96 97 98 99 100 101 102 103 104 105 106 107 108 109 110 111 112 113 114 115 116 117 118 119 123 124 125 126 127 128 129 130 131 132 133 134 135 136 137 138 139 140 141 142 149 150 151 152 153 154 155 156 157 158 159 160 161 162 163 164 165 173 174 175 176 177 178 179 180 181 182 183 184 192 193 194 195 196 197 198 199 200 206 207 208 209 210 215
189 1 2 3 4 5 6 7 8 9 10 11 12 13 14 15 16 17 18 19 20 21 22 23 24 25 26 27 28 29 30 31 32 33 34 35 36 37 38 39 40 41 42 43 44 45 46 47 48 49 50 51 52 53 54 55 56 57 58 59 60 61 62 63 64 65 66 67 68 69 70 71 72 73 74 75 76 77 78 79 80 81 82 83 84 85 86 87 88 89 90 91 92 93 94 95 96 97 98 99 100 101 102 103 104 105 106 107 108 109 110 111 112 113 114 115 116 117 118 119 120 125 126 127 128 129 130 131 132 133 134 135 136 137 138 139 140 141 142 143 144 151 152 153 154 155 156 157 158 159 160 161 162 163 164 165 166 174 175 176 177 178 179 180 181 182 183 184 185 193 194 195 196 197 198 199 200 207 208 209 210 211 215
190 1 2 3 4 5 6 7 8 9 10 11 12 13 14 15 16 17 18 19 20 21 22 23 24 25 26 27 28 29 30 31 32 33 34 35 36 37 38 39 40 41 42 43 44 45 46 47 48 49 50 51 52 53 54 55 56 57 58 59 60 61 62 63 64 65 66 67 68 69 70 71 72 73 74 75 76 77 78 79 80 81 82 83 84 85 86 87 88 89 90 91 92 93 94 95 96 97 98 99 100 101 102 103 104 105 106 107 108 109 110 111 112 113 114 115 116 117 118 119 120 121 122 126 127 128 129 130 131 132 133 134 135 136 137 138 139 140 141 142 143 144 145 152 153 154 155 156 157 158 159 160 161 162 163 164 165 166 167 175 176 177 178 179 180 181 182 183 184 185 186 194 195 196 197 198 199 200 201 208 209 210 211 215
191 1 2 3 4 5 6 7 8 9 10 11 12 13 14 15 16 17 18 19 20 21 22 23 24 25 26 27 28 29 30 31 32 33 34 35 36 37 38 39 40 41 42 43 44 45 46 47 48 49 50 51 52 53 54 55 56 57 58 59 60 61 62 63 64 65 66 67 68 69 70 71 72 73 74 75 76 77 78 79 80 81 82 83 84 85 86 87 88 89 90 91 92 93 94 95 96 97 98 99 100 101 102 103 104 105 106 107 108 109 110 111 112 113 114 115 116 117 118 119 120 121 122 123 128 129 130 131 132 133 134 135 136 137 138 139 140 141 142 143 144 145 146 147 154 155 156 157 158 159 160 161 162 163 164 165 166 167 168 176 177 178 179 180 181 182 183 184 185 186 187 195 196 197 198 199 200 201 202 208 209 210 211 212
192 1 2 3 4 5 6 7 8 9 10 11 12 13 14 15 16 17 18 19 20 21 22 23 24 25 26 27 28 29 30 31 32 33 34 35 36 37 38 39 40 41 42 43 44 45 46 47 48 49 50 51 52 53 54 55 56 57 58 59 60 61 62 63 64 65 66 67 68 69 70 71 72 73 74 75 76 77 78 79 80 81 82 83 84 85 86 87 88 89 90 91 92 93 94 95 96 97 98 99 100 101 102 103 104 105 106 107 108 109 110 111 112 113 114 115 116 117 118 119 120 121 122 123 124 125 129 130 131 132 133 134 135 136 137 138 139 140 141 142 143 144 145 146 147 148 155 156 157 158 159 160 161 162 163 164 165 166 167 168 169 170 178 179 180 181 182 183 184 185 186 187 188 196 197 198 199 200 201 202 203 209 210 211 212
193 1 2 3 4 5 6 7 8 9 10 11 12 13 14 15 16 17 18 19 20 21 22 23 24 25 26 27 28 29 30 31 32 33 34 35 36 37 38 39 40 41 42 43 44 45 46 47 48 49 50 51 52 53 54 55 56 57 58 59 60 61 62 63 64 65 66 67 68 69 70 71 72 73 74 75 76 77 78 79 80 81 82 83 84 85 86 87 88 89 90 91 92 93 94 95 96 97 98 99 100 101 102 103 104 105 106 107 108 109 110 111 112 113 114 115 116 117 118 119 120 121 122 123 124 125 126 131 132 133 134 135 136 137 138 139 140 141 142 143 144 145 146 147 148 149 157 158 159 160 161 162 163 164 165 166 167 168 169 170 171 179 180 181 182 183 184 185 186 187 188 189 197 198 199 200 201 202 203 210 211 212
194 1 2 3 4 5 6 7 8 9 10 11 12 13 14 15 16 17 18 19 20 21 22 23 24 25 26 27 28 29 30 31 32 33 34 35 36 37 38 39 40 41 42 43 44 45 46 47 48 49 50 51 52 53 54 55 56 57 58 59 60 61 62 63 64 65 66 67 68 69 70 71 72 73 74 75 76 77 78 79 80 81 82 83 84 85 86 87 88 89 90 91 92 93 94 95 96 97 98 99 100 101 102 103 104 105 106 107 108 109 110 111 112 113 114 115 116 117 118 119 120 121 122 123 124 125 126 127 128 132 133 134 135 136 137 138 139 140 141 142 143 144 145 146 147 148 149 150 151 158 159 160 161 162 163 164 165 166 167 168 169 170 171 172 180 181 182 183 184 185 186 187 188 189 190 198 199 200 201 202 203 204 210 211 212
195 1 2 3 4 5 6 7 8 9 10 11 12 13 14 15 16 17 18 19 20 21 22 23 24 25 26 27 28 29 30 31 32 33 34 35 36 37 38 39 40 41 42 43 44 45 46 47 48 49 50 51 52 53 54 55 56 57 58 59 60 61 62 63 64 65 66 67 68 69 70 71 72 73 74 75 76 77 78 79 80 81 82 83 84 85 86 87 88 89 90 91 92 93 94 95 96 97 98 99 100 101 102 103 104 105 106 107 108 109 110 111 112 113 114 115 116 117 118 119 120 121 122 123 124 125 126 127 128 129 130 134 135 136 137 138 139 140 141 142 143 144 145 146 147 148 149 150 151 152 159 160 161 162 163 164 165 166 167 168 169 170 171 172 173 181 182 183 184 185 186 187 188 189 190 191 199 200 201 202 203 204 205 211 212 213
196 1 2 3 4 5 6 7 8 9 10 11 12 13 14 15 16 17 18 19 20 21 22 23 24 25 26 27 28 29 30 31 32 33 34 35 36 37 38 39 40 41 42 43 44 45 46 47 48 49 50 51 52 53 54 55 56 57 58 59 60 61 62 63 64 65 66 67 68 69 70 71 72 73 74 75 76 77 78 79 80 81 82 83 84 85 86 87 88 89 90 91 92 93 94 95 96 97 98 99 100 101 102 103 104 105 106 107 108 109 110 111 112 113 114 115 116 117 118 119 120 121 122 123 124 125 126 127 128 129 130 131 136 137 138 139 140 141 142 143 144 145 146 147 148 149 150 151 152 153 154 161 162 163 164 165 166 167 168 169 170 171 172 173 174 175 183 184 185 186 187 188 189 190 191 192 200 201 202 203 204 205 212 213
197 1 2 3 4 5 6 7 8 9 10 11 12 13 14 15 16 17 18 19 20 21 22 23 24 25 26 27 28 29 30 31 32 33 34 35 36 37 38 39 40 41 42 43 44 45 46 47 48 49 50 51 52 53 54 55 56 57 58 59 60 61 62 63 64 65 66 67 68 69 70 71 72 73 74 75 76 77 78 79 80 81 82 83 84 85 86 87 88 89 90 91 92 93 94 95 96 97 98 99 100 101 102 103 104 105 106 107 108 109 110 111 112 113 114 115 116 117 118 119 120 121 122 123 124 125 126 127 128 129 130 131 132 133 138 139 140 141 142 143 144 145 146 147 148 149 150 151 152 153 154 155 163 164 165 166 167 168 169 170 171 172 173 174 175 176 184 185 186 187 188 189 190 191 192 193 201 202 203 204 205 206 212 213
198 1 2 3 4 5 6 7 8 9 10 11 12 13 14 15 16 17 18 19 20 21 22 23 24 25 26 27 28 29 30 31 32 33 34 35 36 37 38 39 40 41 42 43 44 45 46 47 48 49 50 51 52 53 54 55 56 57 58 59 60 61 62 63 64 65 66 67 68 69 70 71 72 73 74 75 76 77 78 79 80 81 82 83 84 85 86 87 88 89 90 91 92 93 94 95 96 97 98 99 100 101 102 103 104 105 106 107 108 109 110 111 112 113 114 115 116 117 118 119 120 121 122 123 124 125 126 127 128 129 130 131 132 133 134 135 139 140 141 142 143 144 145 146 147 148 149 150 151 152 153 154 155 156 157 164 165 166 167 168 169 170 171 172 173 174 175 176 177 186 187 188 189 190 191 192 193 194 202 203 204 205 206 213
199 1 2 3 4 5 6 7 8 9 10 11 12 13 14 15 16 17 18 19 20 21 22 23 24 25 26 27 28 29 30 31 32 33 34 35 36 37 38 39 40 41 42 43 44 45 46 47 48 49 50 51 52 53 54 55 56 57 58 59 60 61 62 63 64 65 66 67 68 69 70 71 72 73 74 75 76 77 78 79 80 81 82 83 84 85 86 87 88 89 90 91 92 93 94 95 96 97 98 99 100 101 102 103 104 105 106 107 108 109 110 111 112 113 114 115 116 117 118 119 120 121 122 123 124 125 126 127 128 129 130 131 132 133 134 135 136 137 141 142 143 144 145 146 147 148 149 150 151 152 153 154 155 156 157 158 159 166 167 168 169 170 171 172 173 174 175 176 177 178 179 187 188 189 190 191 192 193 194 195 203 204 205 206 207 214
200 1 2 3 4 5 6 7 8 9 10 11 12 13 14 15 16 17 18 19 20 21 22 23 24 25 26 27 28 29 30 31 32 33 34 35 36 37 38 39 40 41 42 43 44 45 46 47 48 49 50 51 52 53 54 55 56 57 58 59 60 61 62 63 64 65 66 67 68 69 70 71 72 73 74 75 76 77 78 79 80 81 82 83 84 85 86 87 88 89 90 91 92 93 94 95 96 97 98 99 100 101 102 103 104 105 106 107 108 109 110 111 112 113 114 115 116 117 118 119 120 121 122 123 124 125 126 127 128 129 130 131 132 133 134 135 136 137 138 143 144 145 146 147 148 149 150 151 152 153 154 155 156 157 158 159 160 168 169 170 171 172 173 174 175 176 177 178 179 180 188 189 190 191 192 193 194 195 196 204 205 206 207 208 214
201 1 2 3 4 5 6 7 8 9 10 11 12 13 14 15 16 17 18 19 20 21 22 23 24 25 26 27 28 29 30 31 32 33 34 35 36 37 38 39 40 41 42 43 44 45 46 47 48 49 50 51 52 53 54 55 56 57 58 59 60 61 62 63 64 65 66 67 68 69 70 71 72 73 74 75 76 77 78 79 80 81 82 83 84 85 86 87 88 89 90 91 92 93 94 95 96 97 98 99 100 101 102 103 104 105 106 107 108 109 110 111 112 113 114 115 116 117 118 119 120 121 122 123 124 125 126 127 128 129 130 131 132 133 134 135 136 137 138 139 140 141 144 145 146 147 148 149 150 151 152 153 154 155 156 157 158 159 160 161 162 169 170 171 172 173 174 175 176 177 178 179 180 181 190 191 192 193 194 195 196 197 205 206 207 208
202 1 2 3 4 5 6 7 8 9 10 11 12 13 14 15 16 17 18 19 20 21 22 23 24 25 26 27 28 29 30 31 32 33 34 35 36 37 38 39 40 41 42 43 44 45 46 47 48 49 50 51 52 53 54 55 56 57 58 59 60 61 62 63 64 65 66 67 68 69 70 71 72 73 74 75 76 77 78 79 80 81 82 83 84 85 86 87 88 89 90 91 92 93 94 95 96 97 98 99 100 101 102 103 104 105 106 107 108 109 110 111 112 113 114 115 116 117 118 119 120 121 122 123 124 125 126 127 128 129 130 131 132 133 134 135 136 137 138 139 140 141 142 147 148 149 150 151 152 153 154 155 156 157 158 159 160 161 162 163 171 172 173 174 175 176 177 178 179 180 181 182 183 191 192 193 194 195 196 197 198 206 207 208 209
203 1 2 3 4 5 6 7 8 9 10 11 12 13 14 15 16 17 18 19 20 21 22 23 24 25 26 27 28 29 30 31 32 33 34 35 36 37 38 39 40 41 42 43 44 45 46 47 48 49 50 51 52 53 54 55 56 57 58 59 60 61 62 63 64 65 66 67 68 69 70 71 72 73 74 75 76 77 78 79 80 81 82 83 84 85 86 87 88 89 90 91 92 93 94 95 96 97 98 99 100 101 102 103 104 105 106 107 108 109 110 111 112 113 114 115 116 117 118 119 120 121 122 123 124 125 126 127 128 129 130 131 132 133 134 135 136 137 138 139 140 141 142 143 144 148 149 150 151 152 153 154 155 156 157 158 159 160 161 162 163 164 165 173 174 175 176 177 178 179 180 181 182 183 184 192 193 194 195 196 197 198 199 207 208 209
204 1 2 3 4 5 6 7 8 9 10 11 12 13 14 15 16 17 18 19 20 21 22 23 24 25 26 27 28 29 30 31 32 33 34 35 36 37 38 39 40 41 42 43 44 45 46 47 48 49 50 51 52 53 54 55 56 57 58 59 60 61 62 63 64 65 66 67 68 69 70 71 72 73 74 75 76 77 78 79 80 81 82 83 84 85 86 87 88 89 90 91 92 93 94 95 96 97 98 99 100 101 102 103 104 105 106 107 108 109 110 111 112 113 114 115 116 117 118 119 120 121 122 123 124 125 126 127 128 129 130 131 132 133 134 135 136 137 138 139 140 141 142 143 144 145 150 151 152 153 154 155 156 157 158 159 160 161 162 163 164 165 166 167 174 175 176 177 178 179 180 181 182 183 184 185 194 195 196 197 198 199 200 208 209 210
205 1 2 3 4 5 6 7 8 9 10 11 12 13 14 15 16 17 18 19 20 21 22 23 24 25 26 27 28 29 30 31 32 33 34 35 36 37 38 39 40 41 42 43 44 45 46 47 48 49 50 51 52 53 54 55 56 57 58 59 60 61 62 63 64 65 66 67 68 69 70 71 72 73 74 75 76 77 78 79 80 81 82 83 84 85 86 87 88 89 90 91 92 93 94 95 96 97 98 99 100 101 102 103 104 105 106 107 108 109 110 111 112 113 114 115 116 117 118 119 120 121 122 123 124 125 126 127 128 129 130 131 132 133 134 135 136 137 138 139 140 141 142 143 144 145 146 147 148 152 153 154 155 156 157 158 159 160 161 162 163 164 165 166 167 168 176 177 178 179 180 181 182 183 184 185 186 187 195 196 197 198 199 200 201 210
206 1 2 3 4 5 6 7 8 9 10 11 12 13 14 15 16 17 18 19 20 21 22 23 24 25 26 27 28 29 30 31 32 33 34 35 36 37 38 39 40 41 42 43 44 45 46 47 48 49 50 51 52 53 54 55 56 57 58 59 60 61 62 63 64 65 66 67 68 69 70 71 72 73 74 75 76 77 78 79 80 81 82 83 84 85 86 87 88 89 90 91 92 93 94 95 96 97 98 99 100 101 102 103 104 105 106 107 108 109 110 111 112 113 114 115 116 117 118 119 120 121 122 123 124 125 126 127 128 129 130 131 132 133 134 135 136 137 138 139 140 141 142 143 144 145 146 147 148 149 150 155 156 157 158 159 160 161 162 163 164 165 166 167 168 169 170 178 179 180 181 182 183 184 185 186 187 188 197 198 199 200 201 202 211
207 1 2 3 4 5 6 7 8 9 10 11 12 13 14 15 16 17 18 19 20 21 22 23 24 25 26 27 28 29 30 31 32 33 34 35 36 37 38 39 40 41 42 43 44 45 46 47 48 49 50 51 52 53 54 55 56 57 58 59 60 61 62 63 64 65 66 67 68 69 70 71 72 73 74 75 76 77 78 79 80 81 82 83 84 85 86 87 88 89 90 91 92 93 94 95 96 97 98 99 100 101 102 103 104 105 106 107 108 109 110 111 112 113 114 115 116 117 118 119 120 121 122 123 124 125 126 127 128 129 130 131 132 133 134 135 136 137 138 139 140 141 142 143 144 145 146 147 148 149 150 151 152 157 158 159 160 161 162 163 164 165 166 167 168 169 170 171 172 180 181 182 183 184 185 186 187 188 189 199 200 201 202 203
208 1 2 3 4 5 6 7 8 9 10 11 12 13 14 15 16 17 18 19 20 21 22 23 24 25 26 27 28 29 30 31 32 33 34 35 36 37 38 39 40 41 42 43 44 45 46 47 48 49 50 51 52 53 54 55 56 57 58 59 60 61 62 63 64 65 66 67 68 69 70 71 72 73 74 75 76 77 78 79 80 81 82 83 84 85 86 87 88 89 90 91 92 93 94 95 96 97 98 99 100 101 102 103 104 105 106 107 108 109 110 111 112 113 114 115 116 117 118 119 120 121 122 123 124 125 126 127 128 129 130 131 132 133 134 135 136 137 138 139 140 141 142 143 144 145 146 147 148 149 150 151 152 153 154 159 160 161 162 163 164 165 166 167 168 169 170 171 172 173 174 182 183 184 185 186 187 188 189 190 191 200 201 202 203 204
209 1 2 3 4 5 6 7 8 9 10 11 12 13 14 15 16 17 18 19 20 21 22 23 24 25 26 27 28 29 30 31 32 33 34 35 36 37 38 39 40 41 42 43 44 45 46 47 48 49 50 51 52 53 54 55 56 57 58 59 60 61 62 63 64 65 66 67 68 69 70 71 72 73 74 75 76 77 78 79 80 81 82 83 84 85 86 87 88 89 90 91 92 93 94 95 96 97 98 99 100 101 102 103 104 105 106 107 108 109 110 111 112 113 114 115 116 117 118 119 120 121 122 123 124 125 126 127 128 129 130 131 132 133 134 135 136 137 138 139 140 141 142 143 144 145 146 147 148 149 150 151 152 153 154 155 156 162 163 164 165 166 167 168 169 170 171 172 173 174 175 176 184 185 186 187 188 189 190 191 192 202 203 204
210 1 2 3 4 5 6 7 8 9 10 11 12 13 14 15 16 17 18 19 20 21 22 23 24 25 26 27 28 29 30 31 32 33 34 35 36 37 38 39 40 41 42 43 44 45 46 47 48 49 50 51 52 53 54 55 56 57 58 59 60 61 62 63 64 65 66 67 68 69 70 71 72 73 74 75 76 77 78 79 80 81 82 83 84 85 86 87 88 89 90 91 92 93 94 95 96 97 98 99 100 101 102 103 104 105 106 107 108 109 110 111 112 113 114 115 116 117 118 119 120 121 122 123 124 125 126 127 128 129 130 131 132 133 134 135 136 137 138 139 140 141 142 143 144 145 146 147 148 149 150 151 152 153 154 155 156 157 158 159 164 165 166 167 168 169 170 171 172 173 174 175 176 177 178 187 188 189 190 191 192 193 194 204 205
211 1 2 3 4 5 6 7 8 9 10 11 12 13 14 15 16 17 18 19 20 21 22 23 24 25 26 27 28 29 30 31 32 33 34 35 36 37 38 39 40 41 42 43 44 45 46 47 48 49 50 51 52 53 54 55 56 57 58 59 60 61 62 63 64 65 66 67 68 69 70 71 72 73 74 75 76 77 78 79 80 81 82 83 84 85 86 87 88 89 90 91 92 93 94 95 96 97 98 99 100 101 102 103 104 105 106 107 108 109 110 111 112 113 114 115 116 117 118 119 120 121 122 123 124 125 126 127 128 129 130 131 132 133 134 135 136 137 138 139 140 141 142 143 144 145 146 147 148 149 150 151 152 153 154 155 156 157 158 159 160 161 167 168 169 170 171 172 173 174 175 176 177 178 179 180 189 190 191 192 193 194 195 206
212 1 2 3 4 5 6 7 8 9 10 11 12 13 14 15 16 17 18 19 20 21 22 23 24 25 26 27 28 29 30 31 32 33 34 35 36 37 38 39 40 41 42 43 44 45 46 47 48 49 50 51 52 53 54 55 56 57 58 59 60 61 62 63 64 65 66 67 68 69 70 71 72 73 74 75 76 77 78 79 80 81 82 83 84 85 86 87 88 89 90 91 92 93 94 95 96 97 98 99 100 101 102 103 104 105 106 107 108 109 110 111 112 113 114 115 116 117 118 119 120 121 122 123 124 125 126 127 128 129 130 131 132 133 134 135 136 137 138 139 140 141 142 143 144 145 146 147 148 149 150 151 152 153 154 155 156 157 158 159 160 161 162 163 164 170 171 172 173 174 175 176 177 178 179 180 181 182 191 192 193 194 195 196 197
213 1 2 3 4 5 6 7 8 9 10 11 12 13 14 15 16 17 18 19 20 21 22 23 24 25 26 27 28 29 30 31 32 33 34 35 36 37 38 39 40 41 42 43 44 45 46 47 48 49 50 51 52 53 54 55 56 57 58 59 60 61 62 63 64 65 66 67 68 69 70 71 72 73 74 75 76 77 78 79 80 81 82 83 84 85 86 87 88 89 90 91 92 93 94 95 96 97 98 99 100 101 102 103 104 105 106 107 108 109 110 111 112 113 114 115 116 117 118 119 120 121 122 123 124 125 126 127 128 129 130 131 132 133 134 135 136 137 138 139 140 141 142 143 144 145 146 147 148 149 150 151 152 153 154 155 156 157 158 159 160 161 162 163 164 165 166 167 173 174 175 176 177 178 179 180 181 182 183 184 195 196 197 198
214 1 2 3 4 5 6 7 8 9 10 11 12 13 14 15 16 17 18 19 20 21 22 23 24 25 26 27 28 29 30 31 32 33 34 35 36 37 38 39 40 41 42 43 44 45 46 47 48 49 50 51 52 53 54 55 56 57 58 59 60 61 62 63 64 65 66 67 68 69 70 71 72 73 74 75 76 77 78 79 80 81 82 83 84 85 86 87 88 89 90 91 92 93 94 95 96 97 98 99 100 101 102 103 104 105 106 107 108 109 110 111 112 113 114 115 116 117 118 119 120 121 122 123 124 125 126 127 128 129 130 131 132 133 134 135 136 137 138 139 140 141 142 143 144 145 146 147 148 149 150 151 152 153 154 155 156 157 158 159 160 161 162 163 164 165 166 167 168 169 170 171 177 178 179 180 181 182 183 184 185 186 187 199 200
215 1 2 3 4 5 6 7 8 9 10 11 12 13 14 15 16 17 18 19 20 21 22 23 24 25 26 27 28 29 30 31 32 33 34 35 36 37 38 39 40 41 42 43 44 45 46 47 48 49 50 51 52 53 54 55 56 57 58 59 60 61 62 63 64 65 66 67 68 69 70 71 72 73 74 75 76 77 78 79 80 81 82 83 84 85 86 87 88 89 90 91 92 93 94 95 96 97 98 99 100 101 102 103 104 105 106 107 108 109 110 111 112 113 114 115 116 117 118 119 120 121 122 123 124 125 126 127 128 129 130 131 132 133 134 135 136 137 138 139 140 141 142 143 144 145 146 147 148 149 150 151 152 153 154 155 156 157 158 159 160 161 162 163 164 165 166 167 168 169 170 171 172 173 174 175 182 183 184 185 186 187 188 189 190
216 1 2 3 4 5 6 7 8 9 10 11 12 13 14 15 16 17 18 19 20 21 22 23 24 25 26 27 28 29 30 31 32 33 34 35 36 37 38 39 40 41 42 43 44 45 46 47 48 49 50 51 52 53 54 55 56 57 58 59 60 61 62 63 64 65 66 67 68 69 70 71 72 73 74 75 76 77 78 79 80 81 82 83 84 85 86 87 88 89 90 91 92 93 94 95 96 97 98 99 100 101 102 103 104 105 106 107 108 109 110 111 112 113 114 115 116 117 118 119 120 121 122 123 124 125 126 127 128 129 130 131 132 133 134 135 136 137 138 139 140 141 142 143 144 145 146 147 148 149 150 151 152 153 154 155 156 157 158 159 160 161 162 163 164 165 166 167 168 169 170 171 172 173 174 175 176 177 178 179 180 181
; Include Position restraint file
#ifdef POSRES
#include "posre.itp"
#endif
