;
; MARTINI F64 fullerene model
; generated with /home/alesia/barnoud/internship/software/buildFUL.py
; by barnoud
; on 2012-04-23
; 
; Category
; Synthetic nanoparticles
;
; Name
; F64 fullerene model
;
; Alias
; F64
; 
; Force field
; martini23_CNP
;
; Version
; 1.0
;

[ moleculetype ]
; Name            nrexcl
F64                  1

[ atoms ]
;   nr       type  resnr residue  atom    cgnr     charge       mass
     1        CNP      1     F64     C01     1  0.000000  45.000000
     2        CNP      1     F64     C02     2  0.000000  45.000000
     3        CNP      1     F64     C03     3  0.000000  45.000000
     4        CNP      1     F64     C04     4  0.000000  45.000000
     5        CNP      1     F64     C05     5  0.000000  45.000000
     6        CNP      1     F64     C06     6  0.000000  45.000000
     7        CNP      1     F64     C07     7  0.000000  45.000000
     8        CNP      1     F64     C08     8  0.000000  45.000000
     9        CNP      1     F64     C09     9  0.000000  45.000000
    10        CNP      1     F64     C10    10  0.000000  45.000000
    11        CNP      1     F64     C11    11  0.000000  45.000000
    12        CNP      1     F64     C12    12  0.000000  45.000000
    13        CNP      1     F64     C13    13  0.000000  45.000000
    14        CNP      1     F64     C14    14  0.000000  45.000000
    15        CNP      1     F64     C15    15  0.000000  45.000000
    16        CNP      1     F64     C16    16  0.000000  45.000000
    17        CNP      1     F64     C17    17  0.000000  45.000000
    18        CNP      1     F64     C18    18  0.000000  45.000000
    19        CNP      1     F64     C19    19  0.000000  45.000000
    20        CNP      1     F64     C20    20  0.000000  45.000000
    21        CNP      1     F64     C21    21  0.000000  45.000000
    22        CNP      1     F64     C22    22  0.000000  45.000000
    23        CNP      1     F64     C23    23  0.000000  45.000000
    24        CNP      1     F64     C24    24  0.000000  45.000000
    25        CNP      1     F64     C25    25  0.000000  45.000000
    26        CNP      1     F64     C26    26  0.000000  45.000000
    27        CNP      1     F64     C27    27  0.000000  45.000000
    28        CNP      1     F64     C28    28  0.000000  45.000000
    29        CNP      1     F64     C29    29  0.000000  45.000000
    30        CNP      1     F64     C30    30  0.000000  45.000000
    31        CNP      1     F64     C31    31  0.000000  45.000000
    32        CNP      1     F64     C32    32  0.000000  45.000000
    33        CNP      1     F64     C33    33  0.000000  45.000000
    34        CNP      1     F64     C34    34  0.000000  45.000000
    35        CNP      1     F64     C35    35  0.000000  45.000000
    36        CNP      1     F64     C36    36  0.000000  45.000000
    37        CNP      1     F64     C37    37  0.000000  45.000000
    38        CNP      1     F64     C38    38  0.000000  45.000000
    39        CNP      1     F64     C39    39  0.000000  45.000000
    40        CNP      1     F64     C40    40  0.000000  45.000000
    41        CNP      1     F64     C41    41  0.000000  45.000000
    42        CNP      1     F64     C42    42  0.000000  45.000000
    43        CNP      1     F64     C43    43  0.000000  45.000000
    44        CNP      1     F64     C44    44  0.000000  45.000000
    45        CNP      1     F64     C45    45  0.000000  45.000000
    46        CNP      1     F64     C46    46  0.000000  45.000000
    47        CNP      1     F64     C47    47  0.000000  45.000000
    48        CNP      1     F64     C48    48  0.000000  45.000000
    49        CNP      1     F64     C49    49  0.000000  45.000000
    50        CNP      1     F64     C50    50  0.000000  45.000000
    51        CNP      1     F64     C51    51  0.000000  45.000000
    52        CNP      1     F64     C52    52  0.000000  45.000000
    53        CNP      1     F64     C53    53  0.000000  45.000000
    54        CNP      1     F64     C54    54  0.000000  45.000000
    55        CNP      1     F64     C55    55  0.000000  45.000000
    56        CNP      1     F64     C56    56  0.000000  45.000000
    57        CNP      1     F64     C57    57  0.000000  45.000000
    58        CNP      1     F64     C58    58  0.000000  45.000000
    59        CNP      1     F64     C59    59  0.000000  45.000000
    60        CNP      1     F64     C60    60  0.000000  45.000000
    61        CNP      1     F64     C61    61  0.000000  45.000000
    62        CNP      1     F64     C62    62  0.000000  45.000000
    63        CNP      1     F64     C63    63  0.000000  45.000000
    64        CNP      1     F64     C64    64  0.000000  45.000000

[ bonds ]
;         i           j    funct      length    force_k
         1          2     1         0.337225    1250.000000
         1          3     1         0.377056    1250.000000
         1          4     1         0.322641    1250.000000
         1          5     1         0.393172    1250.000000
         1          6     1         0.342896    1250.000000
         1          7     1         0.328837    1250.000000
         1          8     1         0.521849    1250.000000
         1          9     1         0.659367    1250.000000
         1         10     1         0.619706    1250.000000
         1         11     1         0.686173    1250.000000
         1         12     1         0.591160    1250.000000
         1         13     1         0.616126    1250.000000
         1         14     1         0.704950    1250.000000
         1         15     1         0.611651    1250.000000
         1         16     1         0.653661    1250.000000
         1         17     1         0.596318    1250.000000
         1         18     1         0.688967    1250.000000
         1         19     1         0.810595    1250.000000
         1         20     1         0.926745    1250.000000
         1         21     1         0.888457    1250.000000
         1         22     1         0.901414    1250.000000
         1         23     1         0.957583    1250.000000
         1         24     1         0.856696    1250.000000
         1         25     1         0.845251    1250.000000
         1         26     1         0.911619    1250.000000
         1         27     1         0.977288    1250.000000
         1         28     1         0.873499    1250.000000
         1         29     1         0.886359    1250.000000
         1         30     1         0.910055    1250.000000
         1         31     1         0.873563    1250.000000
         1         32     1         0.961075    1250.000000
         1         33     1         1.069057    1250.000000
         1         38     1         1.062481    1250.000000
         1         42     1         1.078898    1250.000000
         2          3     1         0.329500    1250.000000
         2          4     1         0.538401    1250.000000
         2          5     1         0.702733    1250.000000
         2          6     1         0.614242    1250.000000
         2          7     1         0.395903    1250.000000
         2          8     1         0.327468    1250.000000
         2          9     1         0.346491    1250.000000
         2         10     1         0.355141    1250.000000
         2         11     1         0.574092    1250.000000
         2         12     1         0.665921    1250.000000
         2         13     1         0.831318    1250.000000
         2         14     1         0.970217    1250.000000
         2         15     1         0.892225    1250.000000
         2         16     1         0.862537    1250.000000
         2         17     1         0.696943    1250.000000
         2         18     1         0.621535    1250.000000
         2         19     1         0.602512    1250.000000
         2         20     1         0.657063    1250.000000
         2         21     1         0.604067    1250.000000
         2         22     1         0.681138    1250.000000
         2         23     1         0.838710    1250.000000
         2         24     1         0.850694    1250.000000
         2         25     1         0.957769    1250.000000
         2         26     1         1.093931    1250.000000
         2         29     1         1.091914    1250.000000
         2         30     1         1.033725    1250.000000
         2         31     1         0.893999    1250.000000
         2         32     1         0.848308    1250.000000
         2         33     1         0.870275    1250.000000
         2         34     1         0.910098    1250.000000
         2         35     1         0.884631    1250.000000
         2         36     1         0.972888    1250.000000
         2         37     1         1.078492    1250.000000
         2         38     1         1.088949    1250.000000
         2         45     1         1.067049    1250.000000
         2         46     1         1.070796    1250.000000
         2         47     1         1.093280    1250.000000
         3          4     1         0.329566    1250.000000
         3          5     1         0.611617    1250.000000
         3          6     1         0.692962    1250.000000
         3          7     1         0.625291    1250.000000
         3          8     1         0.639648    1250.000000
         3          9     1         0.575713    1250.000000
         3         10     1         0.350410    1250.000000
         3         11     1         0.331864    1250.000000
         3         12     1         0.358331    1250.000000
         3         13     1         0.600826    1250.000000
         3         14     1         0.832957    1250.000000
         3         15     1         0.879653    1250.000000
         3         16     1         0.965690    1250.000000
         3         17     1         0.899513    1250.000000
         3         18     1         0.894521    1250.000000
         3         19     1         0.875170    1250.000000
         3         20     1         0.853907    1250.000000
         3         21     1         0.689355    1250.000000
         3         22     1         0.604161    1250.000000
         3         23     1         0.644110    1250.000000
         3         24     1         0.577120    1250.000000
         3         25     1         0.689899    1250.000000
         3         26     1         0.883890    1250.000000
         3         27     1         1.054375    1250.000000
         3         28     1         1.061197    1250.000000
         3         32     1         1.092032    1250.000000
         3         33     1         1.078180    1250.000000
         3         34     1         1.030248    1250.000000
         3         35     1         0.901509    1250.000000
         3         36     1         0.871042    1250.000000
         3         37     1         0.894104    1250.000000
         3         38     1         0.852484    1250.000000
         3         39     1         1.010611    1250.000000
         3         49     1         1.087662    1250.000000
         3         51     1         1.086548    1250.000000
         4          5     1         0.319176    1250.000000
         4          6     1         0.529559    1250.000000
         4          7     1         0.632945    1250.000000
         4          8     1         0.787936    1250.000000
         4          9     1         0.829518    1250.000000
         4         10     1         0.660634    1250.000000
         4         11     1         0.556099    1250.000000
         4         12     1         0.319003    1250.000000
         4         13     1         0.332959    1250.000000
         4         14     1         0.543144    1250.000000
         4         15     1         0.628874    1250.000000
         4         16     1         0.804205    1250.000000
         4         17     1         0.843923    1250.000000
         4         18     1         0.955237    1250.000000
         4         19     1         1.036732    1250.000000
         4         20     1         1.078866    1250.000000
         4         21     1         0.960309    1250.000000
         4         22     1         0.862316    1250.000000
         4         23     1         0.810897    1250.000000
         4         24     1         0.622454    1250.000000
         4         25     1         0.563011    1250.000000
         4         26     1         0.667850    1250.000000
         4         27     1         0.815893    1250.000000
         4         28     1         0.812481    1250.000000
         4         29     1         0.945304    1250.000000
         4         30     1         1.060856    1250.000000
         4         31     1         1.090755    1250.000000
         4         36     1         1.050114    1250.000000
         4         37     1         0.977509    1250.000000
         4         38     1         0.828307    1250.000000
         4         39     1         0.892183    1250.000000
         4         40     1         0.993302    1250.000000
         4         41     1         1.057968    1250.000000
         4         42     1         1.058267    1250.000000
         4         51     1         1.078084    1250.000000
         5          6     1         0.337932    1250.000000
         5          7     1         0.598764    1250.000000
         5          8     1         0.847220    1250.000000
         5          9     1         0.983393    1250.000000
         5         10     1         0.901388    1250.000000
         5         11     1         0.836161    1250.000000
         5         12     1         0.585387    1250.000000
         5         13     1         0.372981    1250.000000
         5         14     1         0.338038    1250.000000
         5         15     1         0.326412    1250.000000
         5         16     1         0.558037    1250.000000
         5         17     1         0.696462    1250.000000
         5         18     1         0.906494    1250.000000
         5         19     1         1.079359    1250.000000
         5         22     1         1.095242    1250.000000
         5         23     1         1.043211    1250.000000
         5         24     1         0.846130    1250.000000
         5         25     1         0.685646    1250.000000
         5         26     1         0.631273    1250.000000
         5         27     1         0.653198    1250.000000
         5         28     1         0.554494    1250.000000
         5         29     1         0.681423    1250.000000
         5         30     1         0.848618    1250.000000
         5         31     1         0.956346    1250.000000
         5         38     1         0.961381    1250.000000
         5         39     1         0.917767    1250.000000
         5         40     1         0.911976    1250.000000
         5         41     1         0.888588    1250.000000
         5         42     1         0.829687    1250.000000
         5         43     1         0.971575    1250.000000
         5         44     1         1.090276    1250.000000
         5         54     1         1.071284    1250.000000
         6          7     1         0.333476    1250.000000
         6          8     1         0.635558    1250.000000
         6          9     1         0.865273    1250.000000
         6         10     1         0.902245    1250.000000
         6         11     1         0.960385    1250.000000
         6         12     1         0.813121    1250.000000
         6         13     1         0.686455    1250.000000
         6         14     1         0.600778    1250.000000
         6         15     1         0.348007    1250.000000
         6         16     1         0.332414    1250.000000
         6         17     1         0.383230    1250.000000
         6         18     1         0.627153    1250.000000
         6         19     1         0.866567    1250.000000
         6         20     1         1.058191    1250.000000
         6         21     1         1.098041    1250.000000
         6         24     1         1.056162    1250.000000
         6         25     1         0.959010    1250.000000
         6         26     1         0.905881    1250.000000
         6         27     1         0.856006    1250.000000
         6         28     1         0.652060    1250.000000
         6         29     1         0.595215    1250.000000
         6         30     1         0.637882    1250.000000
         6         31     1         0.687364    1250.000000
         6         32     1         0.898128    1250.000000
         6         41     1         1.001066    1250.000000
         6         42     1         0.844789    1250.000000
         6         43     1         0.876924    1250.000000
         6         44     1         0.917279    1250.000000
         6         45     1         0.952851    1250.000000
         6         54     1         1.081267    1250.000000
         7          8     1         0.319650    1250.000000
         7          9     1         0.595768    1250.000000
         7         10     1         0.722904    1250.000000
         7         11     1         0.894470    1250.000000
         7         12     1         0.871782    1250.000000
         7         13     1         0.877043    1250.000000
         7         14     1         0.875074    1250.000000
         7         15     1         0.658921    1250.000000
         7         16     1         0.528856    1250.000000
         7         17     1         0.329049    1250.000000
         7         18     1         0.386529    1250.000000
         7         19     1         0.588423    1250.000000
         7         20     1         0.803425    1250.000000
         7         21     1         0.881341    1250.000000
         7         22     1         0.999499    1250.000000
         7         24     1         1.086410    1250.000000
         7         25     1         1.088271    1250.000000
         7         28     1         0.926033    1250.000000
         7         29     1         0.813188    1250.000000
         7         30     1         0.719869    1250.000000
         7         31     1         0.602618    1250.000000
         7         32     1         0.699334    1250.000000
         7         33     1         0.878533    1250.000000
         7         34     1         1.049446    1250.000000
         7         42     1         1.055001    1250.000000
         7         43     1         1.007429    1250.000000
         7         44     1         0.941034    1250.000000
         7         45     1         0.861694    1250.000000
         7         46     1         0.979054    1250.000000
         8          9     1         0.322854    1250.000000
         8         10     1         0.568181    1250.000000
         8         11     1         0.835496    1250.000000
         8         12     1         0.937616    1250.000000
         8         13     1         1.042000    1250.000000
         8         14     1         1.095000    1250.000000
         8         15     1         0.926469    1250.000000
         8         16     1         0.779919    1250.000000
         8         17     1         0.522043    1250.000000
         8         18     1         0.328605    1250.000000
         8         19     1         0.324447    1250.000000
         8         20     1         0.518262    1250.000000
         8         21     1         0.634623    1250.000000
         8         22     1         0.830155    1250.000000
         8         23     1         1.032659    1250.000000
         8         24     1         1.086203    1250.000000
         8         29     1         1.024607    1250.000000
         8         30     1         0.869227    1250.000000
         8         31     1         0.647596    1250.000000
         8         32     1         0.562519    1250.000000
         8         33     1         0.646985    1250.000000
         8         34     1         0.805760    1250.000000
         8         35     1         0.903169    1250.000000
         8         36     1         1.077847    1250.000000
         8         44     1         0.995559    1250.000000
         8         45     1         0.820924    1250.000000
         8         46     1         0.837512    1250.000000
         8         47     1         0.927658    1250.000000
         8         48     1         1.057730    1250.000000
         8         56     1         1.064709    1250.000000
         8         57     1         1.075113    1250.000000
         9         10     1         0.334594    1250.000000
         9         11     1         0.654225    1250.000000
         9         12     1         0.868674    1250.000000
         9         13     1         1.069915    1250.000000
         9         16     1         1.027641    1250.000000
         9         17     1         0.809576    1250.000000
         9         18     1         0.597279    1250.000000
         9         19     1         0.391818    1250.000000
         9         20     1         0.332608    1250.000000
         9         21     1         0.332633    1250.000000
         9         22     1         0.555648    1250.000000
         9         23     1         0.813925    1250.000000
         9         24     1         0.943498    1250.000000
         9         30     1         1.096637    1250.000000
         9         31     1         0.882837    1250.000000
         9         32     1         0.698160    1250.000000
         9         33     1         0.605922    1250.000000
         9         34     1         0.615690    1250.000000
         9         35     1         0.642797    1250.000000
         9         36     1         0.836043    1250.000000
         9         37     1         1.040631    1250.000000
         9         45     1         0.965639    1250.000000
         9         46     1         0.875482    1250.000000
         9         47     1         0.842872    1250.000000
         9         48     1         0.892553    1250.000000
         9         49     1         0.925735    1250.000000
         9         57     1         1.064803    1250.000000
        10         11     1         0.338445    1250.000000
        10         12     1         0.606787    1250.000000
        10         13     1         0.884915    1250.000000
        10         14     1         1.093319    1250.000000
        10         17     1         0.977869    1250.000000
        10         18     1         0.852978    1250.000000
        10         19     1         0.703304    1250.000000
        10         20     1         0.579501    1250.000000
        10         21     1         0.360810    1250.000000
        10         22     1         0.347528    1250.000000
        10         23     1         0.553152    1250.000000
        10         24     1         0.665231    1250.000000
        10         25     1         0.882192    1250.000000
        10         26     1         1.095038    1250.000000
        10         32     1         0.971952    1250.000000
        10         33     1         0.861331    1250.000000
        10         34     1         0.755196    1250.000000
        10         35     1         0.620565    1250.000000
        10         36     1         0.680662    1250.000000
        10         37     1         0.833984    1250.000000
        10         38     1         0.920872    1250.000000
        10         47     1         1.013431    1250.000000
        10         48     1         0.959947    1250.000000
        10         49     1         0.878698    1250.000000
        10         50     1         0.985002    1250.000000
        10         51     1         1.083666    1250.000000
        11         12     1         0.349481    1250.000000
        11         13     1         0.684566    1250.000000
        11         14     1         0.955456    1250.000000
        11         15     1         1.079919    1250.000000
        11         18     1         1.080364    1250.000000
        11         19     1         0.978837    1250.000000
        11         20     1         0.848187    1250.000000
        11         21     1         0.592939    1250.000000
        11         22     1         0.366798    1250.000000
        11         23     1         0.329500    1250.000000
        11         24     1         0.347351    1250.000000
        11         25     1         0.601181    1250.000000
        11         26     1         0.869677    1250.000000
        11         27     1         1.092639    1250.000000
        11         33     1         1.089676    1250.000000
        11         34     1         0.932800    1250.000000
        11         35     1         0.710128    1250.000000
        11         36     1         0.596260    1250.000000
        11         37     1         0.618108    1250.000000
        11         38     1         0.643897    1250.000000
        11         39     1         0.884311    1250.000000
        11         48     1         1.038338    1250.000000
        11         49     1         0.866040    1250.000000
        11         50     1         0.858849    1250.000000
        11         51     1         0.874542    1250.000000
        11         52     1         1.086619    1250.000000
        11         59     1         1.081290    1250.000000
        11         60     1         1.071210    1250.000000
        12         13     1         0.357134    1250.000000
        12         14     1         0.667627    1250.000000
        12         15     1         0.858059    1250.000000
        12         16     1         1.043374    1250.000000
        12         17     1         1.077020    1250.000000
        12         20     1         1.081582    1250.000000
        12         21     1         0.886067    1250.000000
        12         22     1         0.690842    1250.000000
        12         23     1         0.550811    1250.000000
        12         24     1         0.319547    1250.000000
        12         25     1         0.353822    1250.000000
        12         26     1         0.599996    1250.000000
        12         27     1         0.844428    1250.000000
        12         28     1         0.949359    1250.000000
        12         35     1         0.986965    1250.000000
        12         36     1         0.833472    1250.000000
        12         37     1         0.719135    1250.000000
        12         38     1         0.572962    1250.000000
        12         39     1         0.724230    1250.000000
        12         40     1         0.920806    1250.000000
        12         41     1         1.077439    1250.000000
        12         49     1         1.072381    1250.000000
        12         50     1         0.980735    1250.000000
        12         51     1         0.864058    1250.000000
        12         52     1         1.001931    1250.000000
        13         14     1         0.332387    1250.000000
        13         15     1         0.600698    1250.000000
        13         16     1         0.864045    1250.000000
        13         17     1         0.998665    1250.000000
        13         22     1         0.981657    1250.000000
        13         23     1         0.828747    1250.000000
        13         24     1         0.562732    1250.000000
        13         25     1         0.334749    1250.000000
        13         26     1         0.354815    1250.000000
        13         27     1         0.551749    1250.000000
        13         28     1         0.652438    1250.000000
        13         29     1         0.890545    1250.000000
        13         30     1         1.091391    1250.000000
        13         36     1         1.063798    1250.000000
        13         37     1         0.890513    1250.000000
        13         38     1         0.651061    1250.000000
        13         39     1         0.630947    1250.000000
        13         40     1         0.725365    1250.000000
        13         41     1         0.835978    1250.000000
        13         42     1         0.911413    1250.000000
        13         51     1         0.901675    1250.000000
        13         52     1         0.919307    1250.000000
        13         53     1         1.000855    1250.000000
        13         54     1         1.087019    1250.000000
        14         15     1         0.357328    1250.000000
        14         16     1         0.663883    1250.000000
        14         17     1         0.886923    1250.000000
        14         23     1         1.071680    1250.000000
        14         24     1         0.838221    1250.000000
        14         25     1         0.578033    1250.000000
        14         26     1         0.376193    1250.000000
        14         27     1         0.334966    1250.000000
        14         28     1         0.339343    1250.000000
        14         29     1         0.617457    1250.000000
        14         30     1         0.881604    1250.000000
        14         31     1         1.071445    1250.000000
        14         37     1         1.076736    1250.000000
        14         38     1         0.838266    1250.000000
        14         39     1         0.694040    1250.000000
        14         40     1         0.628854    1250.000000
        14         41     1         0.617192    1250.000000
        14         42     1         0.636884    1250.000000
        14         43     1         0.870429    1250.000000
        14         44     1         1.071535    1250.000000
        14         51     1         0.998600    1250.000000
        14         52     1         0.902089    1250.000000
        14         53     1         0.863265    1250.000000
        14         54     1         0.874797    1250.000000
        14         55     1         1.083540    1250.000000
        14         61     1         1.078396    1250.000000
        14         62     1         1.086758    1250.000000
        15         16     1         0.326163    1250.000000
        15         17     1         0.588552    1250.000000
        15         18     1         0.865098    1250.000000
        15         19     1         1.098275    1250.000000
        15         24     1         1.062462    1250.000000
        15         25     1         0.871085    1250.000000
        15         26     1         0.706709    1250.000000
        15         27     1         0.569604    1250.000000
        15         28     1         0.322907    1250.000000
        15         29     1         0.375918    1250.000000
        15         30     1         0.599585    1250.000000
        15         31     1         0.799122    1250.000000
        15         32     1         1.058634    1250.000000
        15         39     1         0.976463    1250.000000
        15         40     1         0.859585    1250.000000
        15         41     1         0.721851    1250.000000
        15         42     1         0.572177    1250.000000
        15         43     1         0.705057    1250.000000
        15         44     1         0.863745    1250.000000
        15         45     1         1.008803    1250.000000
        15         53     1         0.979702    1250.000000
        15         54     1         0.858784    1250.000000
        15         55     1         0.984800    1250.000000
        16         17     1         0.315249    1250.000000
        16         18     1         0.621934    1250.000000
        16         19     1         0.907101    1250.000000
        16         26     1         0.970116    1250.000000
        16         27     1         0.812801    1250.000000
        16         28     1         0.532914    1250.000000
        16         29     1         0.319678    1250.000000
        16         30     1         0.336306    1250.000000
        16         31     1         0.506891    1250.000000
        16         32     1         0.813875    1250.000000
        16         33     1         1.073701    1250.000000
        16         40     1         1.049527    1250.000000
        16         41     1         0.859503    1250.000000
        16         42     1         0.622760    1250.000000
        16         43     1         0.594356    1250.000000
        16         44     1         0.650810    1250.000000
        16         45     1         0.761032    1250.000000
        16         46     1         1.003437    1250.000000
        16         53     1         1.071407    1250.000000
        16         54     1         0.865707    1250.000000
        16         55     1         0.878468    1250.000000
        16         56     1         0.925235    1250.000000
        16         62     1         1.087504    1250.000000
        17         18     1         0.324918    1250.000000
        17         19     1         0.640920    1250.000000
        17         20     1         0.908184    1250.000000
        17         21     1         1.057251    1250.000000
        17         27     1         1.050057    1250.000000
        17         28     1         0.812558    1250.000000
        17         29     1         0.592863    1250.000000
        17         30     1         0.419740    1250.000000
        17         31     1         0.332977    1250.000000
        17         32     1         0.581268    1250.000000
        17         33     1         0.860012    1250.000000
        17         41     1         1.084584    1250.000000
        17         42     1         0.866761    1250.000000
        17         43     1         0.755945    1250.000000
        17         44     1         0.671606    1250.000000
        17         45     1         0.639088    1250.000000
        17         46     1         0.848664    1250.000000
        17         47     1         1.070495    1250.000000
        17         54     1         1.038565    1250.000000
        17         55     1         0.960211    1250.000000
        17         56     1         0.892424    1250.000000
        17         57     1         1.057458    1250.000000
        18         19     1         0.335766    1250.000000
        18         20     1         0.639098    1250.000000
        18         21     1         0.848247    1250.000000
        18         22     1         1.056388    1250.000000
        18         28     1         1.058691    1250.000000
        18         29     1         0.850260    1250.000000
        18         30     1         0.614542    1250.000000
        18         31     1         0.338576    1250.000000
        18         32     1         0.336555    1250.000000
        18         33     1         0.590539    1250.000000
        18         34     1         0.864957    1250.000000
        18         35     1         1.044570    1250.000000
        18         42     1         1.071512    1250.000000
        18         43     1         0.913931    1250.000000
        18         44     1         0.731638    1250.000000
        18         45     1         0.550914    1250.000000
        18         46     1         0.659768    1250.000000
        18         47     1         0.862023    1250.000000
        18         48     1         1.070731    1250.000000
        18         55     1         1.013748    1250.000000
        18         56     1         0.842979    1250.000000
        18         57     1         0.927542    1250.000000
        18         63     1         1.093163    1250.000000
        19         20     1         0.322200    1250.000000
        19         21     1         0.584989    1250.000000
        19         22     1         0.852575    1250.000000
        19         23     1         1.086256    1250.000000
        19         29     1         1.093492    1250.000000
        19         30     1         0.872750    1250.000000
        19         31     1         0.588161    1250.000000
        19         32     1         0.329360    1250.000000
        19         33     1         0.342583    1250.000000
        19         34     1         0.582451    1250.000000
        19         35     1         0.786316    1250.000000
        19         36     1         1.033048    1250.000000
        19         43     1         1.098280    1250.000000
        19         44     1         0.890153    1250.000000
        19         45     1         0.638621    1250.000000
        19         46     1         0.569587    1250.000000
        19         47     1         0.659802    1250.000000
        19         48     1         0.848951    1250.000000
        19         49     1         1.003985    1250.000000
        19         56     1         0.875542    1250.000000
        19         57     1         0.837449    1250.000000
        19         58     1         0.978806    1250.000000
        19         63     1         1.070567    1250.000000
        20         21     1         0.318209    1250.000000
        20         22     1         0.619262    1250.000000
        20         23     1         0.889324    1250.000000
        20         24     1         1.078815    1250.000000
        20         30     1         1.099189    1250.000000
        20         31     1         0.854205    1250.000000
        20         32     1         0.563435    1250.000000
        20         33     1         0.327069    1250.000000
        20         34     1         0.324009    1250.000000
        20         35     1         0.496588    1250.000000
        20         36     1         0.785114    1250.000000
        20         37     1         1.043381    1250.000000
        20         44     1         1.065245    1250.000000
        20         45     1         0.824176    1250.000000
        20         46     1         0.639393    1250.000000
        20         47     1         0.551103    1250.000000
        20         48     1         0.638945    1250.000000
        20         49     1         0.760577    1250.000000
        20         50     1         1.008054    1250.000000
        20         56     1         0.966288    1250.000000
        20         57     1         0.821390    1250.000000
        20         58     1         0.861219    1250.000000
        20         59     1         0.952202    1250.000000
        20         63     1         1.067169    1250.000000
        21         22     1         0.317553    1250.000000
        21         23     1         0.619307    1250.000000
        21         24     1         0.843215    1250.000000
        21         25     1         1.077849    1250.000000
        21         31     1         1.071665    1250.000000
        21         32     1         0.839103    1250.000000
        21         33     1         0.614377    1250.000000
        21         34     1         0.425348    1250.000000
        21         35     1         0.333012    1250.000000
        21         36     1         0.557115    1250.000000
        21         37     1         0.827583    1250.000000
        21         38     1         1.015503    1250.000000
        21         45     1         1.064790    1250.000000
        21         46     1         0.890470    1250.000000
        21         47     1         0.731729    1250.000000
        21         48     1         0.671588    1250.000000
        21         49     1         0.650663    1250.000000
        21         50     1         0.863261    1250.000000
        21         51     1         1.070931    1250.000000
        21         57     1         0.995920    1250.000000
        21         58     1         0.940748    1250.000000
        21         59     1         0.916911    1250.000000
        21         60     1         1.089988    1250.000000
        22         23     1         0.317750    1250.000000
        22         24     1         0.575142    1250.000000
        22         25     1         0.856968    1250.000000
        22         26     1         1.093693    1250.000000
        22         32     1         1.076391    1250.000000
        22         33     1         0.874987    1250.000000
        22         34     1         0.634417    1250.000000
        22         35     1         0.368626    1250.000000
        22         36     1         0.354634    1250.000000
        22         37     1         0.576181    1250.000000
        22         38     1         0.766307    1250.000000
        22         39     1         1.017387    1250.000000
        22         46     1         1.098401    1250.000000
        22         47     1         0.913763    1250.000000
        22         48     1         0.755604    1250.000000
        22         49     1         0.594261    1250.000000
        22         50     1         0.704872    1250.000000
        22         51     1         0.870435    1250.000000
        22         58     1         1.007346    1250.000000
        22         59     1         0.876791    1250.000000
        22         60     1         0.971719    1250.000000
        23         24     1         0.312732    1250.000000
        23         25     1         0.617476    1250.000000
        23         26     1         0.883533    1250.000000
        23         33     1         1.093944    1250.000000
        23         34     1         0.854111    1250.000000
        23         35     1         0.565684    1250.000000
        23         36     1         0.320877    1250.000000
        23         37     1         0.322196    1250.000000
        23         38     1         0.478703    1250.000000
        23         39     1         0.767755    1250.000000
        23         40     1         1.021042    1250.000000
        23         47     1         1.071812    1250.000000
        23         48     1         0.866695    1250.000000
        23         49     1         0.623117    1250.000000
        23         50     1         0.572032    1250.000000
        23         51     1         0.636549    1250.000000
        23         52     1         0.910869    1250.000000
        23         58     1         1.055434    1250.000000
        23         59     1         0.844917    1250.000000
        23         60     1         0.829711    1250.000000
        23         61     1         1.057870    1250.000000
        23         64     1         1.078629    1250.000000
        24         25     1         0.325770    1250.000000
        24         26     1         0.628854    1250.000000
        24         27     1         0.899873    1250.000000
        24         28     1         1.075491    1250.000000
        24         34     1         1.083423    1250.000000
        24         35     1         0.839262    1250.000000
        24         36     1         0.599781    1250.000000
        24         37     1         0.424496    1250.000000
        24         38     1         0.322611    1250.000000
        24         39     1         0.585246    1250.000000
        24         40     1         0.855316    1250.000000
        24         41     1         1.078297    1250.000000
        24         48     1         1.084488    1250.000000
        24         49     1         0.860173    1250.000000
        24         50     1         0.722280    1250.000000
        24         51     1         0.617156    1250.000000
        24         52     1         0.835623    1250.000000
        24         53     1         1.076023    1250.000000
        24         59     1         1.001446    1250.000000
        24         60     1         0.888744    1250.000000
        24         61     1         1.057766    1250.000000
        25         26     1         0.321797    1250.000000
        25         27     1         0.623880    1250.000000
        25         28     1         0.836372    1250.000000
        25         29     1         1.082462    1250.000000
        25         35     1         1.077694    1250.000000
        25         36     1         0.852981    1250.000000
        25         37     1         0.612220    1250.000000
        25         38     1         0.334807    1250.000000
        25         39     1         0.398910    1250.000000
        25         40     1         0.629855    1250.000000
        25         41     1         0.855096    1250.000000
        25         42     1         1.020957    1250.000000
        25         49     1         1.050511    1250.000000
        25         50     1         0.860538    1250.000000
        25         51     1         0.629065    1250.000000
        25         52     1         0.725150    1250.000000
        25         53     1         0.919283    1250.000000
        25         60     1         0.912153    1250.000000
        25         61     1         0.993131    1250.000000
        26         27     1         0.318561    1250.000000
        26         28     1         0.580149    1250.000000
        26         29     1         0.874862    1250.000000
        26         36     1         1.058110    1250.000000
        26         37     1         0.811480    1250.000000
        26         38     1         0.524604    1250.000000
        26         39     1         0.344862    1250.000000
        26         40     1         0.399149    1250.000000
        26         41     1         0.585813    1250.000000
        26         42     1         0.768536    1250.000000
        26         43     1         1.017470    1250.000000
        26         50     1         0.976937    1250.000000
        26         51     1         0.693569    1250.000000
        26         52     1         0.630877    1250.000000
        26         53     1         0.723239    1250.000000
        26         54     1         0.884874    1250.000000
        26         60     1         0.917451    1250.000000
        26         61     1         0.892115    1250.000000
        26         62     1         1.010510    1250.000000
        27         28     1         0.322348    1250.000000
        27         29     1         0.633657    1250.000000
        27         30     1         0.916642    1250.000000
        27         37     1         1.016553    1250.000000
        27         38     1         0.774810    1250.000000
        27         39     1         0.524299    1250.000000
        27         40     1         0.333906    1250.000000
        27         41     1         0.323073    1250.000000
        27         42     1         0.479747    1250.000000
        27         43     1         0.766510    1250.000000
        27         44     1         1.016164    1250.000000
        27         51     1         0.837306    1250.000000
        27         52     1         0.650865    1250.000000
        27         53     1         0.572092    1250.000000
        27         54     1         0.644367    1250.000000
        27         55     1         0.920603    1250.000000
        27         60     1         0.960653    1250.000000
        27         61     1         0.828140    1250.000000
        27         62     1         0.852480    1250.000000
        27         63     1         1.089136    1250.000000
        27         64     1         1.062038    1250.000000
        28         29     1         0.339760    1250.000000
        28         30     1         0.656863    1250.000000
        28         31     1         0.921317    1250.000000
        28         38     1         1.016440    1250.000000
        28         39     1         0.811052    1250.000000
        28         40     1         0.610974    1250.000000
        28         41     1         0.423986    1250.000000
        28         42     1         0.322802    1250.000000
        28         43     1         0.576491    1250.000000
        28         44     1         0.828373    1250.000000
        28         45     1         1.044495    1250.000000
        28         51     1         1.075640    1250.000000
        28         52     1         0.890304    1250.000000
        28         53     1         0.718262    1250.000000
        28         54     1         0.618159    1250.000000
        28         55     1         0.833806    1250.000000
        28         56     1         1.040451    1250.000000
        28         61     1         0.977329    1250.000000
        28         62     1         0.894191    1250.000000
        28         63     1         1.078564    1250.000000
        29         30     1         0.336678    1250.000000
        29         31     1         0.642515    1250.000000
        29         32     1         0.943667    1250.000000
        29         39     1         1.058262    1250.000000
        29         40     1         0.852258    1250.000000
        29         41     1         0.599254    1250.000000
        29         42     1         0.320462    1250.000000
        29         43     1         0.354515    1250.000000
        29         44     1         0.557324    1250.000000
        29         45     1         0.785871    1250.000000
        29         46     1         1.032794    1250.000000
        29         52     1         1.064106    1250.000000
        29         53     1         0.833037    1250.000000
        29         54     1         0.595938    1250.000000
        29         55     1         0.680319    1250.000000
        29         56     1         0.835541    1250.000000
        29         57     1         1.077442    1250.000000
        29         61     1         1.050202    1250.000000
        29         62     1         0.871217    1250.000000
        29         63     1         0.972639    1250.000000
        30         31     1         0.333188    1250.000000
        30         32     1         0.665026    1250.000000
        30         33     1         0.947501    1250.000000
        30         40     1         1.077245    1250.000000
        30         41     1         0.838833    1250.000000
        30         42     1         0.565226    1250.000000
        30         43     1         0.368799    1250.000000
        30         44     1         0.333044    1250.000000
        30         45     1         0.497343    1250.000000
        30         46     1         0.786059    1250.000000
        30         47     1         1.044292    1250.000000
        30         53     1         0.986721    1250.000000
        30         54     1         0.709897    1250.000000
        30         55     1         0.620598    1250.000000
        30         56     1         0.642468    1250.000000
        30         57     1         0.902737    1250.000000
        30         62     1         0.901804    1250.000000
        30         63     1         0.884334    1250.000000
        31         32     1         0.362399    1250.000000
        31         33     1         0.688995    1250.000000
        31         34     1         0.985242    1250.000000
        31         41     1         1.082889    1250.000000
        31         42     1         0.853469    1250.000000
        31         43     1         0.634099    1250.000000
        31         44     1         0.424344    1250.000000
        31         45     1         0.323506    1250.000000
        31         46     1         0.581816    1250.000000
        31         47     1         0.864596    1250.000000
        31         54     1         0.932233    1250.000000
        31         55     1         0.754774    1250.000000
        31         56     1         0.614857    1250.000000
        31         57     1         0.804847    1250.000000
        31         58     1         1.049183    1250.000000
        31         62     1         1.029923    1250.000000
        31         63     1         0.909184    1250.000000
        32         33     1         0.349040    1250.000000
        32         34     1         0.689046    1250.000000
        32         35     1         0.947681    1250.000000
        32         42     1         1.093297    1250.000000
        32         43     1         0.874939    1250.000000
        32         44     1         0.614004    1250.000000
        32         45     1         0.326235    1250.000000
        32         46     1         0.342513    1250.000000
        32         47     1         0.590543    1250.000000
        32         48     1         0.860281    1250.000000
        32         49     1         1.074386    1250.000000
        32         54     1         1.089461    1250.000000
        32         55     1         0.861576    1250.000000
        32         56     1         0.606038    1250.000000
        32         57     1         0.646725    1250.000000
        32         58     1         0.878337    1250.000000
        32         59     1         1.099957    1250.000000
        32         62     1         1.078019    1250.000000
        32         63     1         0.869913    1250.000000
        32         64     1         1.069388    1250.000000
        33         34     1         0.362621    1250.000000
        33         35     1         0.665413    1250.000000
        33         36     1         0.944103    1250.000000
        33         43     1         1.076560    1250.000000
        33         44     1         0.838979    1250.000000
        33         45     1         0.562539    1250.000000
        33         46     1         0.329457    1250.000000
        33         47     1         0.336684    1250.000000
        33         48     1         0.581819    1250.000000
        33         49     1         0.814585    1250.000000
        33         50     1         1.058990    1250.000000
        33         55     1         0.972415    1250.000000
        33         56     1         0.698470    1250.000000
        33         57     1         0.562621    1250.000000
        33         58     1         0.699046    1250.000000
        33         59     1         0.898168    1250.000000
        33         62     1         1.091929    1250.000000
        33         63     1         0.848253    1250.000000
        33         64     1         0.961571    1250.000000
        34         35     1         0.333530    1250.000000
        34         36     1         0.642581    1250.000000
        34         37     1         0.920705    1250.000000
        34         44     1         1.071148    1250.000000
        34         45     1         0.853148    1250.000000
        34         46     1         0.587893    1250.000000
        34         47     1         0.337713    1250.000000
        34         48     1         0.332260    1250.000000
        34         49     1         0.506499    1250.000000
        34         50     1         0.798402    1250.000000
        34         51     1         1.070590    1250.000000
        34         56     1         0.882344    1250.000000
        34         57     1         0.647043    1250.000000
        34         58     1         0.601027    1250.000000
        34         59     1         0.686145    1250.000000
        34         60     1         0.955466    1250.000000
        34         61     1         1.089764    1250.000000
        34         63     1         0.893108    1250.000000
        34         64     1         0.872711    1250.000000
        35         36     1         0.336636    1250.000000
        35         37     1         0.656235    1250.000000
        35         38     1         0.916267    1250.000000
        35         45     1         1.098893    1250.000000
        35         46     1         0.873192    1250.000000
        35         47     1         0.614682    1250.000000
        35         48     1         0.419680    1250.000000
        35         49     1         0.336061    1250.000000
        35         50     1         0.599144    1250.000000
        35         51     1         0.881357    1250.000000
        35         52     1         1.091362    1250.000000
        35         56     1         1.096947    1250.000000
        35         57     1         0.869863    1250.000000
        35         58     1         0.719708    1250.000000
        35         59     1         0.637612    1250.000000
        35         60     1         0.848663    1250.000000
        35         61     1         1.060689    1250.000000
        35         63     1         1.034094    1250.000000
        35         64     1         0.910053    1250.000000
        36         37     1         0.339140    1250.000000
        36         38     1         0.633316    1250.000000
        36         39     1         0.874774    1250.000000
        36         40     1         1.083160    1250.000000
        36         46     1         1.094018    1250.000000
        36         47     1         0.850401    1250.000000
        36         48     1         0.592563    1250.000000
        36         49     1         0.319564    1250.000000
        36         50     1         0.375528    1250.000000
        36         51     1         0.617532    1250.000000
        36         52     1         0.890565    1250.000000
        36         57     1         1.025395    1250.000000
        36         58     1         0.813459    1250.000000
        36         59     1         0.595225    1250.000000
        36         60     1         0.681760    1250.000000
        36         61     1         0.945252    1250.000000
        36         63     1         1.092572    1250.000000
        36         64     1         0.886298    1250.000000
        37         38     1         0.322597    1250.000000
        37         39     1         0.580681    1250.000000
        37         40     1         0.837795    1250.000000
        37         41     1         1.076437    1250.000000
        37         47     1         1.058419    1250.000000
        37         48     1         0.811682    1250.000000
        37         49     1         0.532647    1250.000000
        37         50     1         0.322777    1250.000000
        37         51     1         0.340115    1250.000000
        37         52     1         0.652845    1250.000000
        37         53     1         0.948880    1250.000000
        37         58     1         0.926375    1250.000000
        37         59     1         0.652074    1250.000000
        37         60     1         0.555029    1250.000000
        37         61     1         0.812680    1250.000000
        37         62     1         1.061137    1250.000000
        37         64     1         0.873289    1250.000000
        38         39     1         0.318875    1250.000000
        38         40     1         0.625195    1250.000000
        38         41     1         0.900847    1250.000000
        38         48     1         1.049347    1250.000000
        38         49     1         0.812944    1250.000000
        38         50     1         0.569784    1250.000000
        38         51     1         0.335087    1250.000000
        38         52     1         0.551858    1250.000000
        38         53     1         0.843754    1250.000000
        38         54     1         1.093766    1250.000000
        38         59     1         0.856171    1250.000000
        38         60     1         0.653367    1250.000000
        38         61     1         0.815994    1250.000000
        38         62     1         1.054365    1250.000000
        38         64     1         0.977021    1250.000000
        39         40     1         0.322865    1250.000000
        39         41     1         0.629639    1250.000000
        39         42     1         0.884415    1250.000000
        39         43     1         1.093924    1250.000000
        39         49     1         0.970614    1250.000000
        39         50     1         0.707257    1250.000000
        39         51     1         0.375827    1250.000000
        39         52     1         0.354691    1250.000000
        39         53     1         0.599146    1250.000000
        39         54     1         0.870546    1250.000000
        39         55     1         1.094989    1250.000000
        39         59     1         0.906166    1250.000000
        39         60     1         0.631146    1250.000000
        39         61     1         0.667827    1250.000000
        39         62     1         0.883786    1250.000000
        39         63     1         1.094545    1250.000000
        39         64     1         0.911241    1250.000000
        40         41     1         0.325523    1250.000000
        40         42     1         0.617369    1250.000000
        40         43     1         0.856267    1250.000000
        40         44     1         1.077856    1250.000000
        40         50     1         0.872542    1250.000000
        40         51     1         0.578386    1250.000000
        40         52     1         0.335491    1250.000000
        40         53     1         0.352639    1250.000000
        40         54     1         0.601131    1250.000000
        40         55     1         0.881361    1250.000000
        40         58     1         1.089188    1250.000000
        40         59     1         0.959780    1250.000000
        40         60     1         0.685852    1250.000000
        40         61     1         0.563178    1250.000000
        40         62     1         0.689530    1250.000000
        40         63     1         0.958005    1250.000000
        40         64     1         0.845024    1250.000000
        41         42     1         0.312802    1250.000000
        41         43     1         0.574434    1250.000000
        41         44     1         0.843147    1250.000000
        41         45     1         1.079130    1250.000000
        41         50     1         1.063558    1250.000000
        41         51     1         0.838087    1250.000000
        41         52     1         0.563515    1250.000000
        41         53     1         0.319370    1250.000000
        41         54     1         0.347190    1250.000000
        41         55     1         0.664272    1250.000000
        41         56     1         0.942653    1250.000000
        41         57     1         1.085907    1250.000000
        41         58     1         1.087028    1250.000000
        41         59     1         1.056597    1250.000000
        41         60     1         0.845923    1250.000000
        41         61     1         0.622736    1250.000000
        41         62     1         0.577042    1250.000000
        41         63     1         0.850617    1250.000000
        41         64     1         0.856479    1250.000000
        42         43     1         0.316968    1250.000000
        42         44     1         0.619169    1250.000000
        42         45     1         0.889743    1250.000000
        42         46     1         1.085869    1250.000000
        42         51     1         1.071596    1250.000000
        42         52     1         0.829698    1250.000000
        42         53     1         0.551099    1250.000000
        42         54     1         0.329293    1250.000000
        42         55     1         0.552357    1250.000000
        42         56     1         0.813086    1250.000000
        42         57     1         1.032251    1250.000000
        42         60     1         1.043086    1250.000000
        42         61     1         0.811419    1250.000000
        42         62     1         0.644462    1250.000000
        42         63     1         0.838548    1250.000000
        42         64     1         0.957706    1250.000000
        43         44     1         0.318140    1250.000000
        43         45     1         0.620426    1250.000000
        43         46     1         0.852679    1250.000000
        43         47     1         1.056355    1250.000000
        43         52     1         0.982138    1250.000000
        43         53     1         0.690806    1250.000000
        43         54     1         0.366283    1250.000000
        43         55     1         0.347363    1250.000000
        43         56     1         0.555392    1250.000000
        43         57     1         0.830014    1250.000000
        43         58     1         1.000161    1250.000000
        43         60     1         1.094828    1250.000000
        43         61     1         0.862604    1250.000000
        43         62     1         0.604584    1250.000000
        43         63     1         0.681050    1250.000000
        43         64     1         0.901746    1250.000000
        44         45     1         0.318929    1250.000000
        44         46     1         0.584710    1250.000000
        44         47     1         0.848086    1250.000000
        44         48     1         1.057359    1250.000000
        44         53     1         0.886454    1250.000000
        44         54     1         0.593082    1250.000000
        44         55     1         0.361375    1250.000000
        44         56     1         0.332321    1250.000000
        44         57     1         0.634207    1250.000000
        44         58     1         0.881806    1250.000000
        44         59     1         1.098512    1250.000000
        44         61     1         0.960960    1250.000000
        44         62     1         0.690021    1250.000000
        44         63     1         0.603884    1250.000000
        44         64     1         0.889164    1250.000000
        45         46     1         0.321195    1250.000000
        45         47     1         0.638346    1250.000000
        45         48     1         0.907893    1250.000000
        45         53     1         1.081941    1250.000000
        45         54     1         0.848855    1250.000000
        45         55     1         0.580651    1250.000000
        45         56     1         0.333012    1250.000000
        45         57     1         0.517511    1250.000000
        45         58     1         0.803219    1250.000000
        45         59     1         1.058174    1250.000000
        45         61     1         1.079439    1250.000000
        45         62     1         0.854548    1250.000000
        45         63     1         0.656884    1250.000000
        45         64     1         0.927360    1250.000000
        46         47     1         0.335979    1250.000000
        46         48     1         0.641513    1250.000000
        46         49     1         0.908128    1250.000000
        46         50     1         1.098904    1250.000000
        46         54     1         0.978902    1250.000000
        46         55     1         0.703783    1250.000000
        46         56     1         0.392129    1250.000000
        46         57     1         0.324318    1250.000000
        46         58     1         0.588390    1250.000000
        46         59     1         0.866799    1250.000000
        46         60     1         1.079317    1250.000000
        46         61     1         1.037010    1250.000000
        46         62     1         0.875179    1250.000000
        46         63     1         0.602307    1250.000000
        46         64     1         0.811279    1250.000000
        47         48     1         0.325320    1250.000000
        47         49     1         0.622438    1250.000000
        47         50     1         0.865126    1250.000000
        47         54     1         1.080401    1250.000000
        47         55     1         0.853244    1250.000000
        47         56     1         0.597479    1250.000000
        47         57     1         0.328819    1250.000000
        47         58     1         0.385830    1250.000000
        47         59     1         0.626866    1250.000000
        47         60     1         0.906179    1250.000000
        47         61     1         0.955064    1250.000000
        47         62     1         0.894050    1250.000000
        47         63     1         0.621349    1250.000000
        47         64     1         0.689199    1250.000000
        48         49     1         0.315135    1250.000000
        48         50     1         0.587842    1250.000000
        48         51     1         0.885996    1250.000000
        48         52     1         0.998211    1250.000000
        48         53     1         1.075913    1250.000000
        48         55     1         0.978043    1250.000000
        48         56     1         0.809870    1250.000000
        48         57     1         0.522786    1250.000000
        48         58     1         0.328451    1250.000000
        48         59     1         0.382343    1250.000000
        48         60     1         0.695826    1250.000000
        48         61     1         0.843309    1250.000000
        48         62     1         0.898732    1250.000000
        48         63     1         0.697066    1250.000000
        48         64     1         0.596072    1250.000000
        49         50     1         0.326077    1250.000000
        49         51     1         0.664236    1250.000000
        49         52     1         0.864780    1250.000000
        49         53     1         1.043484    1250.000000
        49         56     1         1.028707    1250.000000
        49         57     1         0.781338    1250.000000
        49         58     1         0.529568    1250.000000
        49         59     1         0.332809    1250.000000
        49         60     1         0.558861    1250.000000
        49         61     1         0.804859    1250.000000
        49         62     1         0.966138    1250.000000
        49         63     1         0.863891    1250.000000
        49         64     1         0.654359    1250.000000
        50         51     1         0.357951    1250.000000
        50         52     1         0.601419    1250.000000
        50         53     1         0.858112    1250.000000
        50         54     1         1.081437    1250.000000
        50         57     1         0.927459    1250.000000
        50         58     1         0.659592    1250.000000
        50         59     1         0.348307    1250.000000
        50         60     1         0.327490    1250.000000
        50         61     1         0.629441    1250.000000
        50         62     1         0.879924    1250.000000
        50         63     1         0.893405    1250.000000
        50         64     1         0.611850    1250.000000
        51         52     1         0.331669    1250.000000
        51         53     1         0.666176    1250.000000
        51         54     1         0.955586    1250.000000
        51         55     1         1.092633    1250.000000
        51         57     1         1.095009    1250.000000
        51         58     1         0.875311    1250.000000
        51         59     1         0.600802    1250.000000
        51         60     1         0.337904    1250.000000
        51         61     1         0.542436    1250.000000
        51         62     1         0.831972    1250.000000
        51         63     1         0.970283    1250.000000
        51         64     1         0.704009    1250.000000
        52         53     1         0.356783    1250.000000
        52         54     1         0.685749    1250.000000
        52         55     1         0.885166    1250.000000
        52         56     1         1.070153    1250.000000
        52         57     1         1.042716    1250.000000
        52         58     1         0.878096    1250.000000
        52         59     1         0.686961    1250.000000
        52         60     1         0.372756    1250.000000
        52         61     1         0.333162    1250.000000
        52         62     1         0.600943    1250.000000
        52         63     1         0.832280    1250.000000
        52         64     1         0.615933    1250.000000
        53         54     1         0.350465    1250.000000
        53         55     1         0.606623    1250.000000
        53         56     1         0.868307    1250.000000
        53         57     1         0.937560    1250.000000
        53         58     1         0.872308    1250.000000
        53         59     1         0.813025    1250.000000
        53         60     1         0.584364    1250.000000
        53         61     1         0.319038    1250.000000
        53         62     1         0.358649    1250.000000
        53         63     1         0.666390    1250.000000
        53         64     1         0.590790    1250.000000
        54         55     1         0.337725    1250.000000
        54         56     1         0.653718    1250.000000
        54         57     1         0.835553    1250.000000
        54         58     1         0.895579    1250.000000
        54         59     1         0.961317    1250.000000
        54         60     1         0.836346    1250.000000
        54         61     1         0.557025    1250.000000
        54         62     1         0.332670    1250.000000
        54         63     1         0.574364    1250.000000
        54         64     1         0.686735    1250.000000
        55         56     1         0.334707    1250.000000
        55         57     1         0.568396    1250.000000
        55         58     1         0.723788    1250.000000
        55         59     1         0.902699    1250.000000
        55         60     1         0.900885    1250.000000
        55         61     1         0.660749    1250.000000
        55         62     1         0.350590    1250.000000
        55         63     1         0.355196    1250.000000
        55         64     1         0.620178    1250.000000
        56         57     1         0.322669    1250.000000
        56         58     1         0.596146    1250.000000
        56         59     1         0.865494    1250.000000
        56         60     1         0.982920    1250.000000
        56         61     1         0.829526    1250.000000
        56         62     1         0.575540    1250.000000
        56         63     1         0.345909    1250.000000
        56         64     1         0.659853    1250.000000
        57         58     1         0.320133    1250.000000
        57         59     1         0.636178    1250.000000
        57         60     1         0.847421    1250.000000
        57         61     1         0.788351    1250.000000
        57         62     1         0.639541    1250.000000
        57         63     1         0.327264    1250.000000
        57         64     1         0.522809    1250.000000
        58         59     1         0.333799    1250.000000
        58         60     1         0.599255    1250.000000
        58         61     1         0.633771    1250.000000
        58         62     1         0.625671    1250.000000
        58         63     1         0.396748    1250.000000
        58         64     1         0.330027    1250.000000
        59         60     1         0.338343    1250.000000
        59         61     1         0.529821    1250.000000
        59         62     1         0.692796    1250.000000
        59         63     1         0.614987    1250.000000
        59         64     1         0.343001    1250.000000
        60         61     1         0.318437    1250.000000
        60         62     1         0.610601    1250.000000
        60         63     1         0.702943    1250.000000
        60         64     1         0.392263    1250.000000
        61         62     1         0.329384    1250.000000
        61         63     1         0.539148    1250.000000
        61         64     1         0.322211    1250.000000
        62         63     1         0.329698    1250.000000
        62         64     1         0.376640    1250.000000
        63         64     1         0.338374    1250.000000

[ constraints ]
;         i           j    funct      length
[ exclusions ]
1 34 35 36 37 39 40 41 43 44 45 46 47 48 49 50 51 52 53 54 55 56 57 58 59 60 61 62 63 64
2 27 28 39 40 41 42 43 44 48 49 50 51 52 53 54 55 56 57 58 59 60 61 62 63 64
3 29 30 31 40 41 42 43 44 45 46 47 48 50 52 53 54 55 56 57 58 59 60 61 62 63 64
4 32 33 34 35 43 44 45 46 47 48 49 50 52 53 54 55 56 57 58 59 60 61 62 63 64
5 20 21 32 33 34 35 36 37 45 46 47 48 49 50 51 52 53 55 56 57 58 59 60 61 62 63 64
6 22 23 33 34 35 36 37 38 39 40 46 47 48 49 50 51 52 53 55 56 57 58 59 60 61 62 63 64
7 23 26 27 35 36 37 38 39 40 41 47 48 49 50 51 52 53 54 55 56 57 58 59 60 61 62 63 64
8 25 26 27 28 37 38 39 40 41 42 43 49 50 51 52 53 54 55 58 59 60 61 62 63 64
9 14 15 25 26 27 28 29 38 39 40 41 42 43 44 50 51 52 53 54 55 56 58 59 60 61 62 63 64
10 15 16 27 28 29 30 31 39 40 41 42 43 44 45 46 52 53 54 55 56 57 58 59 60 61 62 63 64
11 16 17 28 29 30 31 32 40 41 42 43 44 45 46 47 53 54 55 56 57 58 61 62 63 64
12 18 19 29 30 31 32 33 34 42 43 44 45 46 47 48 53 54 55 56 57 58 59 60 61 62 63 64
13 18 19 20 21 31 32 33 34 35 43 44 45 46 47 48 49 50 55 56 57 58 59 60 61 62 63 64
14 9 18 19 20 21 22 32 33 34 35 36 45 46 47 48 49 50 56 57 58 59 60 63 64
15 9 10 20 21 22 23 33 34 35 36 37 38 46 47 48 49 50 51 52 56 57 58 59 60 61 62 63 64
16 10 11 20 21 22 23 24 25 34 35 36 37 38 39 47 48 49 50 51 52 57 58 59 60 61 63 64
17 11 22 23 24 25 26 34 35 36 37 38 39 40 48 49 50 51 52 53 58 59 60 61 62 63 64
18 12 13 14 23 24 25 26 27 36 37 38 39 40 41 49 50 51 52 53 54 58 59 60 61 62 64
19 12 13 14 24 25 26 27 28 37 38 39 40 41 42 50 51 52 53 54 55 59 60 61 62 64
20 5 13 14 15 16 25 26 27 28 29 38 39 40 41 42 43 51 52 53 54 55 60 61 62 64
21 5 13 14 15 16 26 27 28 29 30 39 40 41 42 43 44 52 53 54 55 56 61 62 63 64
22 6 14 15 16 17 27 28 29 30 31 40 41 42 43 44 45 52 53 54 55 56 57 61 62 63 64
23 6 7 15 16 17 18 27 28 29 30 31 32 41 42 43 44 45 46 53 54 55 56 57 62 63
24 16 17 18 19 29 30 31 32 33 42 43 44 45 46 47 54 55 56 57 58 62 63 64
25 8 9 16 17 18 19 20 30 31 32 33 34 43 44 45 46 47 48 54 55 56 57 58 59 62 63 64
26 7 8 9 17 18 19 20 21 30 31 32 33 34 35 44 45 46 47 48 49 55 56 57 58 59 63 64
27 2 7 8 9 10 18 19 20 21 22 23 31 32 33 34 35 36 45 46 47 48 49 50 56 57 58 59
28 2 8 9 10 11 19 20 21 22 23 32 33 34 35 36 37 46 47 48 49 50 57 58 59 60 64
29 3 9 10 11 12 20 21 22 23 24 33 34 35 36 37 38 47 48 49 50 51 58 59 60 64
30 3 10 11 12 21 22 23 24 25 26 34 35 36 37 38 39 48 49 50 51 52 58 59 60 61 64
31 3 10 11 12 13 22 23 24 25 26 27 35 36 37 38 39 40 48 49 50 51 52 53 59 60 61 64
32 4 5 11 12 13 14 23 24 25 26 27 28 36 37 38 39 40 41 50 51 52 53 60 61
33 4 5 6 12 13 14 15 24 25 26 27 28 29 37 38 39 40 41 42 51 52 53 54 60 61
34 1 4 5 6 12 13 14 15 16 17 25 26 27 28 29 30 38 39 40 41 42 43 52 53 54 55 62
35 1 4 5 6 7 13 14 15 16 17 26 27 28 29 30 31 39 40 41 42 43 44 53 54 55 62
36 1 5 6 7 14 15 16 17 18 27 28 29 30 31 32 41 42 43 44 45 53 54 55 56 62
37 1 5 6 7 8 15 16 17 18 19 28 29 30 31 32 33 42 43 44 45 46 54 55 56 57 63
38 6 7 8 9 15 16 17 18 19 20 29 30 31 32 33 34 42 43 44 45 46 47 55 56 57 58 63
39 1 2 6 7 8 9 10 16 17 18 19 20 21 30 31 32 33 34 35 44 45 46 47 48 56 57 58
40 1 2 3 6 7 8 9 10 11 17 18 19 20 21 22 31 32 33 34 35 45 46 47 48 49 56 57
41 1 2 3 7 8 9 10 11 18 19 20 21 22 23 32 33 34 35 36 46 47 48 49
42 2 3 8 9 10 11 12 19 20 21 22 23 24 33 34 35 36 37 38 47 48 49 50 58 59
43 1 2 3 4 8 9 10 11 12 13 20 21 22 23 24 25 34 35 36 37 38 48 49 50 51 59
44 1 2 3 4 9 10 11 12 13 21 22 23 24 25 26 35 36 37 38 39 49 50 51 52 60
45 1 3 4 5 10 11 12 13 14 22 23 24 25 26 27 36 37 38 39 40 49 50 51 52 60
46 1 3 4 5 6 10 11 12 13 14 15 23 24 25 26 27 28 37 38 39 40 41 51 52 53
47 1 3 4 5 6 7 11 12 13 14 15 16 24 25 26 27 28 29 38 39 40 41 42 51 52 53
48 1 2 3 4 5 6 7 12 13 14 15 16 17 25 26 27 28 29 30 31 39 40 41 42 43 54
49 1 2 4 5 6 7 8 13 14 15 16 17 18 26 27 28 29 30 31 40 41 42 43 44 45 54 55
50 1 2 3 4 5 6 7 8 9 13 14 15 16 17 18 19 27 28 29 30 31 32 42 43 44 45 55 56
51 1 2 5 6 7 8 9 15 16 17 18 19 20 29 30 31 32 33 43 44 45 46 47 56
52 1 2 3 4 5 6 7 8 9 10 15 16 17 18 19 20 21 22 30 31 32 33 34 44 45 46 47
53 1 2 3 4 5 6 7 8 9 10 11 12 17 18 19 20 21 22 23 31 32 33 34 35 36 46 47
54 1 2 3 4 7 8 9 10 11 12 18 19 20 21 22 23 24 25 33 34 35 36 37 48 49
55 1 2 3 4 5 6 7 8 9 10 11 12 13 19 20 21 22 23 24 25 26 34 35 36 37 38 49 50
56 1 2 3 4 5 6 7 9 10 11 12 13 14 15 21 22 23 24 25 26 27 36 37 38 39 40 50 51
57 1 2 3 4 5 6 7 10 11 12 13 14 15 16 22 23 24 25 26 27 28 37 38 39 40
58 1 2 3 4 5 6 7 8 9 10 11 12 13 14 15 16 17 18 24 25 26 27 28 29 30 38 39 42
59 1 2 3 4 5 6 7 8 9 10 12 13 14 15 16 17 18 19 25 26 27 28 29 30 31 42 43
60 1 2 3 4 5 6 7 8 9 10 12 13 14 15 16 17 18 19 20 28 29 30 31 32 33 44 45
61 1 2 3 4 5 6 7 8 9 10 11 12 13 15 16 17 18 19 20 21 22 30 31 32 33
62 1 2 3 4 5 6 7 8 9 10 11 12 13 15 17 18 19 20 21 22 23 24 25 34 35 36
63 1 2 3 4 5 6 7 8 9 10 11 12 13 14 15 16 17 21 22 23 24 25 26 37 38
64 1 2 3 4 5 6 7 8 9 10 11 12 13 14 15 16 17 18 19 20 21 22 24 25 26 28 29 30 31
; Include Position restraint file
#ifdef POSRES
#include "posre.itp"
#endif
