Martini system
20503
    1CHOL   ROH    1   7.602   8.568   6.138  0.0546  0.1346  0.0152
    1CHOL    R1    2   7.703   8.596   5.875 -0.0238  0.1016 -0.0201
    1CHOL    R2    3   7.619   8.436   5.665 -0.0708  0.0555  0.0248
    1CHOL    R3    4   7.567   8.675   5.547 -0.1308  0.0338  0.0096
    1CHOL    R4    5   7.547   8.480   5.330 -0.0250  0.0365  0.0134
    1CHOL    R5    6   7.670   8.660   5.332 -0.0911  0.0725  0.0319
    1CHOL    C1    7   7.456   8.731   5.024 -0.0546  0.0051 -0.0076
    1CHOL    C2    8   7.303   8.844   4.733  0.0596  0.1401 -0.1408
    2CHOL   ROH    9   7.809   7.516   6.148  0.0138 -0.1943 -0.1774
    2CHOL    R1   10   7.895   7.423   5.894 -0.0673 -0.1446 -0.2234
    2CHOL    R2   11   7.724   7.403   5.677 -0.1032  0.0341 -0.2107
    2CHOL    R3   12   7.913   7.556   5.556 -0.0319 -0.0249 -0.1750
    2CHOL    R4   13   7.786   7.409   5.337  0.0698 -0.1082 -0.1834
    2CHOL    R5   14   7.999   7.417   5.381  0.0502 -0.1030 -0.0763
    2CHOL    C1   15   8.000   7.556   5.026  0.2376 -0.2464 -0.1340
    2CHOL    C2   16   8.089   7.299   4.695  0.0105  0.0895  0.0346
    3POPS   CNO   17   7.932   8.080   6.237  0.0498 -0.2423  0.0370
    3POPS   PO4   18   7.615   8.135   6.440  0.1405  0.0538 -0.0880
    3POPS   GL1   19   7.457   8.023   6.039 -0.0887  0.2965  0.1450
    3POPS   GL2   20   7.711   7.913   5.820  0.1639 -0.0160 -0.0721
    3POPS   C1A   21   7.226   8.072   5.739 -0.0497 -0.2819  0.1270
    3POPS   D2A   22   7.110   8.134   5.267  0.0605  0.0194  0.0109
    3POPS   C3A   23   7.214   8.375   4.903  0.2052 -0.1410  0.1699
    3POPS   C4A   24   7.070   8.517   4.412 -0.1423  0.0959  0.0905
    3POPS   C1B   25   7.742   8.001   5.418  0.0580  0.0543 -0.0431
    3POPS   C2B   26   7.702   8.067   4.922  0.1611  0.0180  0.1619
    3POPS   C3B   27   7.781   7.756   4.618  0.1959  0.0326 -0.1798
    3POPS   C4B   28   7.907   7.507   4.214  0.0209  0.1172 -0.0463
    4CHOL   ROH   29   7.371   7.507   5.982 -0.4048  0.0114  0.0924
    4CHOL    R1   30   7.236   7.519   5.734 -0.2214  0.1226 -0.0045
    4CHOL    R2   31   7.317   7.684   5.528  0.0595  0.0579  0.0508
    4CHOL    R3   32   7.317   7.452   5.385 -0.0287  0.0576  0.0510
    4CHOL    R4   33   7.443   7.649   5.208  0.1639 -0.0159  0.0994
    4CHOL    R5   34   7.272   7.521   5.160  0.1011  0.0883  0.0327
    4CHOL    C1   35   7.515   7.411   4.888  0.1419 -0.0591  0.1280
    4CHOL    C2   36   7.484   7.332   4.493 -0.0050 -0.0566 -0.0443
    5CHOL   ROH   37   8.198   8.532   5.967  0.0349 -0.0398  0.0381
    5CHOL    R1   38   8.252   8.474   5.696  0.0447  0.0193  0.0271
    5CHOL    R2   39   8.066   8.358   5.528  0.0447  0.0694 -0.0094
    5CHOL    R3   40   8.119   8.574   5.372  0.0665  0.1031  0.0441
    5CHOL    R4   41   7.991   8.380   5.191  0.0579  0.1602 -0.0066
    5CHOL    R5   42   8.183   8.479   5.161  0.0654  0.1516  0.0232
    5CHOL    C1   43   7.998   8.596   4.848  0.0861  0.2447  0.0453
    5CHOL    C2   44   8.232   8.611   4.556  0.0044  0.0595  0.0387
    6CHOL   ROH   45   7.149   8.479   6.042  0.2103 -0.2449 -0.1293
    6CHOL    R1   46   7.214   8.607   5.798  0.0894 -0.2088 -0.1432
    6CHOL    R2   47   7.102   8.533   5.557 -0.1561 -0.0653 -0.0719
    6CHOL    R3   48   7.035   8.796   5.544 -0.0041 -0.0173  0.0609
    6CHOL    R4   49   7.052   8.710   5.264 -0.1199  0.0918  0.0141
    6CHOL    R5   50   7.156   8.879   5.354  0.0041 -0.0061  0.0663
    6CHOL    C1   51   6.960   9.059   5.081  0.0439  0.2282  0.1889
    6CHOL    C2   52   6.789   8.979   4.722  0.1499 -0.0138  0.2309
    7POSM   NC3   53   6.055   7.529   6.545 -0.0887  0.1312  0.0031
    7POSM   PO4   54   6.408   7.338   6.596 -0.3667  0.1355  0.2555
    7POSM   AM1   55   6.679   7.372   6.248  0.3298 -0.1017 -0.1509
    7POSM   AM2   56   6.896   7.571   6.193 -0.1208  0.1307  0.0533
    7POSM   T1A   57   6.853   7.169   5.869 -0.1575  0.1258 -0.0964
    7POSM   C2A   58   6.914   7.182   5.426 -0.1970  0.2287  0.0862
    7POSM   C3A   59   6.856   7.136   4.988  0.3493 -0.2269  0.0067
    7POSM   C1B   60   6.791   7.724   5.876 -0.0029 -0.0964  0.1702
    7POSM   D2B   61   6.815   7.665   5.408  0.2601 -0.2366  0.2552
    7POSM   C3B   62   6.891   7.766   4.982 -0.4280 -0.0276 -0.1213
    7POSM   C4B   63   7.292   7.862   4.789 -0.0313 -0.2084  0.0714
    8CHOL   ROH   64   8.378   7.292   6.021 -0.0428 -0.0171 -0.0992
    8CHOL    R1   65   8.403   7.395   5.759 -0.0162 -0.0960 -0.1283
    8CHOL    R2   66   8.627   7.353   5.602  0.0236 -0.0955 -0.0724
    8CHOL    R3   67   8.445   7.259   5.424  0.0790 -0.1946 -0.0768
    8CHOL    R4   68   8.675   7.334   5.261 -0.0147  0.0851 -0.0883
    8CHOL    R5   69   8.470   7.399   5.233 -0.0831 -0.0933 -0.0261
    8CHOL    C1   70   8.532   7.234   4.894  0.0149  0.0971 -0.1018
    8CHOL    C2   71   8.532   7.019   4.589 -0.0213  0.3043  0.1336
    9CHOL   ROH   72   7.410   6.998   5.952  0.3244 -0.2101  0.0553
    9CHOL    R1   73   7.383   7.073   5.680  0.2999 -0.1973  0.0607
    9CHOL    R2   74   7.557   6.986   5.483  0.1281 -0.3989  0.0021
    9CHOL    R3   75   7.327   6.903   5.364 -0.0095 -0.1574  0.0908
    9CHOL    R4   76   7.500   6.985   5.142  0.0068 -0.3517  0.0210
    9CHOL    R5   77   7.297   7.054   5.181  0.0892 -0.1277  0.0935
    9CHOL    C1   78   7.251   6.908   4.832 -0.1929 -0.0974  0.1152
    9CHOL    C2   79   7.121   7.004   4.599 -0.0140  0.1950 -0.0177
   10CHOL   ROH   80   8.726   8.536   6.056  0.1904 -0.1079 -0.0265
   10CHOL    R1   81   8.709   8.551   5.774  0.0106 -0.0451 -0.0132
   10CHOL    R2   82   8.878   8.411   5.607  0.0717  0.1867 -0.1524
   10CHOL    R3   83   8.645   8.320   5.500  0.1059 -0.0393 -0.0405
   10CHOL    R4   84   8.833   8.329   5.274 -0.0476  0.2771 -0.1591
   10CHOL    R5   85   8.636   8.422   5.283 -0.1531  0.0448  0.0086
   10CHOL    C1   86   8.588   8.196   4.980 -0.0849  0.1176 -0.0579
   10CHOL    C2   87   8.264   8.104   4.737  0.1377 -0.1584  0.0019
   11CHOL   ROH   88   6.171   7.355   6.064  0.2663 -0.0767  0.0767
   11CHOL    R1   89   6.215   7.435   5.796 -0.0999  0.0750  0.0574
   11CHOL    R2   90   6.411   7.323   5.637  0.0709  0.5540 -0.0957
   11CHOL    R3   91   6.203   7.278   5.467  0.0469  0.0902  0.0429
   11CHOL    R4   92   6.436   7.310   5.292 -0.1448  0.7252 -0.1194
   11CHOL    R5   93   6.248   7.420   5.279 -0.4369  0.2703  0.0527
   11CHOL    C1   94   6.256   7.261   4.933 -0.2929  0.3895 -0.0031
   11CHOL    C2   95   6.421   7.369   4.741  0.2693  0.2166 -0.3072
   12POPE   NH3   96   7.067   7.063   6.295 -0.2404 -0.1075 -0.1010
   12POPE   PO4   97   7.560   7.127   6.398 -0.2943  0.2702  0.1699
   12POPE   GL1   98   7.952   6.984   6.090  0.0392  0.0964 -0.1860
   12POPE   GL2   99   7.822   6.698   6.001 -0.4052 -0.1048 -0.1687
   12POPE   C1A  100   8.068   7.017   5.663 -0.0291  0.3493  0.0744
   12POPE   D2A  101   8.066   6.989   5.098  0.1145 -0.2747 -0.0742
   12POPE   C3A  102   7.724   6.946   4.743  0.0464  0.0340  0.0844
   12POPE   C4A  103   7.538   6.747   4.415 -0.1151  0.2570 -0.0242
   12POPE   C1B  104   7.768   6.565   5.636 -0.2508 -0.1969 -0.0238
   12POPE   C2B  105   7.730   6.516   5.216  0.1279 -0.0505  0.2281
   12POPE   C3B  106   7.638   6.523   4.888 -0.0812  0.0773 -0.1414
   12POPE   C4B  107   7.908   6.340   4.449  0.0634  0.0544  0.1217
   13POPS   CNO  108   8.597   7.915   6.721 -0.0550 -0.2016 -0.1725
   13POPS   PO4  109   8.238   7.702   6.421 -0.2010  0.1410  0.0937
   13POPS   GL1  110   8.313   7.872   5.985  0.0233  0.2465 -0.2480
   13POPS   GL2  111   8.511   8.115   5.903 -0.1513 -0.2786  0.1306
   13POPS   C1A  112   8.234   7.882   5.551  0.3273 -0.1446  0.0669
   13POPS   D2A  113   8.354   7.904   5.250 -0.0841 -0.3026  0.0962
   13POPS   C3A  114   8.431   7.676   4.813  0.1140  0.1491  0.0779
   13POPS   C4A  115   8.372   7.678   4.337 -0.1592  0.0609  0.0375
   13POPS   C1B  116   8.763   7.869   5.578  0.0696  0.2212  0.0177
   13POPS   C2B  117   8.874   7.851   5.159 -0.2450  0.0580 -0.0880
   13POPS   C3B  118   8.917   7.492   4.859  0.1331 -0.2196 -0.0470
   13POPS   C4B  119   8.837   7.434   4.495  0.1035 -0.1002 -0.2272
   14POPC   NC3  120   6.676   6.613   6.879 -0.0754 -0.1275  0.4050
   14POPC   PO4  121   7.049   6.556   6.594 -0.3044 -0.3960 -0.1594
   14POPC   GL1  122   6.883   6.624   6.119 -0.0661  0.0296 -0.0690
   14POPC   GL2  123   6.722   6.334   6.215 -0.5512 -0.1498 -0.0159
   14POPC   C1A  124   6.932   6.731   5.642  0.1124  0.0387 -0.0674
   14POPC   D2A  125   6.927   6.670   5.191  0.1031 -0.2506 -0.3028
   14POPC   C3A  126   7.109   6.437   4.895 -0.1646 -0.0678 -0.0372
   14POPC   C4A  127   7.415   6.132   4.700 -0.3265 -0.0858  0.0763
   14POPC   C1B  128   6.663   6.372   5.768  0.0156  0.3337 -0.1692
   14POPC   C2B  129   6.696   6.289   5.383  0.1853 -0.1605 -0.2214
   14POPC   C3B  130   6.598   6.247   4.920 -0.1455 -0.1964  0.0122
   14POPC   C4B  131   6.673   6.288   4.467 -0.0644 -0.3657  0.1223
   15POSM   NC3  132   8.076   8.716   6.905 -0.2261 -0.2128  0.0615
   15POSM   PO4  133   8.077   9.081   6.681  0.2287  0.0218 -0.2463
   15POSM   AM1  134   7.862   9.092   6.337 -0.0351  0.0525 -0.1444
   15POSM   AM2  135   8.010   8.968   6.107  0.1743 -0.0007 -0.0381
   15POSM   T1A  136   7.800   9.381   5.910 -0.1437 -0.2311  0.1465
   15POSM   C2A  137   7.570   9.583   5.604 -0.0840  0.1231  0.1938
   15POSM   C3A  138   7.516   9.771   5.221 -0.1067  0.1903 -0.1320
   15POSM   C1B  139   7.908   9.014   5.585 -0.0547  0.0850  0.2936
   15POSM   D2B  140   7.973   8.999   5.145 -0.2294  0.1907 -0.0037
   15POSM   C3B  141   8.270   9.125   4.820  0.4695 -0.1872  0.1005
   15POSM   C4B  142   8.441   9.416   4.558  0.0828  0.1692 -0.2066
   16CHOL   ROH  143   8.272   9.486   6.044 -0.0212  0.0805  0.0595
   16CHOL    R1  144   8.252   9.580   5.777 -0.0599  0.0086  0.0370
   16CHOL    R2  145   8.315   9.422   5.559 -0.0180 -0.0254  0.0743
   16CHOL    R3  146   8.064   9.490   5.479 -0.0422 -0.1240  0.0648
   16CHOL    R4  147   8.209   9.434   5.230 -0.0042 -0.0516  0.0687
   16CHOL    R5  148   8.098   9.616   5.278 -0.0819 -0.0988  0.0728
   16CHOL    C1  149   7.912   9.505   4.964 -0.0188 -0.1595  0.0566
   16CHOL    C2  150   7.964   9.452   4.569 -0.1948 -0.0505 -0.2097
   17CHOL   ROH  151   6.682   8.114   6.160 -0.0507 -0.1556  0.0701
   17CHOL    R1  152   6.598   8.202   5.904 -0.2046 -0.4150  0.0272
   17CHOL    R2  153   6.745   8.378   5.751 -0.6343  0.0049  0.0707
   17CHOL    R3  154   6.725   8.183   5.564 -0.0036 -0.0920  0.0815
   17CHOL    R4  155   6.719   8.432   5.411 -0.5861 -0.1167  0.0479
   17CHOL    R5  156   6.573   8.271   5.401 -0.1581 -0.5205 -0.0146
   17CHOL    C1  157   6.685   8.279   5.037  0.0340 -0.2784  0.0448
   17CHOL    C2  158   6.832   8.134   4.610  0.2041  0.0378 -0.2514
   18POPE   NH3  159   7.303   8.532   6.569 -0.1858  0.0519  0.1187
   18POPE   PO4  160   7.184   9.060   6.615  0.2554 -0.0978  0.0166
   18POPE   GL1  161   7.184   9.085   6.151  0.2903  0.2026 -0.0444
   18POPE   GL2  162   7.331   9.283   6.057  0.1561 -0.0341 -0.1893
   18POPE   C1A  163   6.836   9.136   5.889 -0.1979 -0.2544 -0.1973
   18POPE   D2A  164   6.598   9.268   5.745  0.1386 -0.0804  0.0433
   18POPE   C3A  165   6.580   9.311   5.313 -0.0196 -0.1795  0.3634
   18POPE   C4A  166   6.442   9.328   4.943 -0.1339 -0.1250 -0.0798
   18POPE   C1B  167   7.436   9.130   5.638 -0.0281 -0.0583  0.1525
   18POPE   C2B  168   7.500   9.223   5.202  0.1213 -0.2104 -0.1488
   18POPE   C3B  169   7.444   9.385   4.749  0.0691 -0.1113  0.1977
   18POPE   C4B  170   7.488   9.162   4.358 -0.0363  0.0062 -0.0648
   19POPE   NH3  171   8.966   6.769   6.395 -0.1793  0.1629 -0.0088
   19POPE   PO4  172   9.008   7.227   6.603 -0.0538 -0.0630  0.0792
   19POPE   GL1  173   9.085   7.329   6.184  0.1242 -0.1414  0.1067
   19POPE   GL2  174   8.877   7.200   6.008 -0.0634 -0.0493 -0.2617
   19POPE   C1A  175   9.096   7.600   5.764  0.0960  0.0375 -0.0914
   19POPE   D2A  176   9.200   7.488   5.292 -0.0812  0.0609 -0.0904
   19POPE   C3A  177   9.440   7.736   5.057 -0.4206 -0.2790  0.0575
   19POPE   C4A  178   9.537   8.081   4.713 -0.1335  0.2339 -0.2354
   19POPE   C1B  179   9.029   7.142   5.603 -0.0136  0.1618 -0.0452
   19POPE   C2B  180   9.046   7.058   5.213 -0.0502 -0.1383  0.3286
   19POPE   C3B  181   8.980   6.966   4.809  0.1501 -0.2050 -0.1074
   19POPE   C4B  182   9.062   6.677   4.456  0.0885 -0.0817  0.1537
   20POPE   NH3  183   9.568   6.171   6.388  0.1813  0.1145 -0.0298
   20POPE   PO4  184   9.197   6.346   6.232 -0.1123 -0.0981 -0.1100
   20POPE   GL1  185   9.200   6.673   5.856 -0.3565  0.2025 -0.0839
   20POPE   GL2  186   9.324   6.930   5.955  0.0214 -0.1375 -0.0587
   20POPE   C1A  187   9.175   6.629   5.464  0.1795  0.0086 -0.3066
   20POPE   D2A  188   9.491   6.806   5.130 -0.0577 -0.0186  0.1112
   20POPE   C3A  189   9.485   6.723   4.683 -0.3066 -0.0279  0.0141
   20POPE   C4A  190   9.719   6.905   4.357 -0.1651  0.1517 -0.1812
   20POPE   C1B  191   9.527   7.313   5.647  0.3641  0.3316 -0.1510
   20POPE   C2B  192   9.671   7.234   5.276  0.1701  0.1315  0.2710
   20POPE   C3B  193   9.483   7.255   4.885  0.1599  0.0402  0.2699
   20POPE   C4B  194   9.301   7.158   4.451 -0.3218 -0.3510 -0.1599
   21POSM   NC3  195   7.548   6.638   6.861 -0.0974  0.1373 -0.0471
   21POSM   PO4  196   7.601   6.244   6.719  0.0352  0.2979 -0.1250
   21POSM   AM1  197   7.811   6.329   6.307 -0.2108  0.3520  0.1033
   21POSM   AM2  198   7.793   5.949   6.331 -0.4125 -0.0106 -0.0203
   21POSM   T1A  199   7.911   6.122   5.781  0.0842  0.1405 -0.0719
   21POSM   C2A  200   8.016   6.054   5.294  0.1205  0.1427  0.1634
   21POSM   C3A  201   7.845   6.069   4.906  0.2365 -0.1412  0.1046
   21POSM   C1B  202   7.448   6.090   6.147  0.1637  0.0972  0.1270
   21POSM   D2B  203   7.179   6.338   5.868 -0.1413  0.0479  0.0974
   21POSM   C3B  204   7.278   6.428   5.464  0.1757 -0.3262  0.0537
   21POSM   C4B  205   7.395   6.156   5.180 -0.0503 -0.4324 -0.1842
   22CHOL   ROH  206   6.330   7.919   6.304  0.0961 -0.0910 -0.0402
   22CHOL    R1  207   6.259   7.818   6.049 -0.0044 -0.0898 -0.0126
   22CHOL    R2  208   6.158   7.980   5.849  0.0705 -0.0603 -0.0239
   22CHOL    R3  209   6.363   7.874   5.705 -0.0184 -0.2164 -0.0386
   22CHOL    R4  210   6.193   8.007   5.506  0.2346  0.2102  0.0109
   22CHOL    R5  211   6.261   7.799   5.502 -0.0516  0.1117 -0.1508
   22CHOL    C1  212   6.406   7.923   5.172  0.2467  0.2212  0.0173
   22CHOL    C2  213   6.438   7.847   4.782 -0.0191  0.0845 -0.2619
   23POPC   NC3  214   9.272   8.442   6.318  0.0846 -0.2006 -0.0841
   23POPC   PO4  215   8.986   8.149   6.325 -0.0577 -0.2576  0.1082
   23POPC   GL1  216   9.134   8.039   5.953  0.1042  0.0334  0.2217
   23POPC   GL2  217   9.281   8.291   5.866  0.3072  0.0056 -0.2851
   23POPC   C1A  218   9.264   7.998   5.473  0.1063 -0.0964 -0.2681
   23POPC   D2A  219   9.280   8.321   5.105 -0.0232  0.2138 -0.1551
   23POPC   C3A  220   9.056   8.073   4.758 -0.2693 -0.4324 -0.1284
   23POPC   C4A  221   8.838   7.950   4.533 -0.1814 -0.0348 -0.2114
   23POPC   C1B  222   9.372   8.580   5.622 -0.1749  0.0393  0.3267
   23POPC   C2B  223   9.380   8.787   5.218  0.1256 -0.1028  0.3942
   23POPC   C3B  224   9.517   8.967   4.810 -0.0786 -0.2070  0.1037
   23POPC   C4B  225   9.619   8.750   4.450 -0.1070  0.1412  0.0379
   24CHOL   ROH  226   6.944   5.912   6.128 -0.0767  0.1396  0.0422
   24CHOL    R1  227   6.986   5.780   5.882 -0.0717  0.1155  0.0557
   24CHOL    R2  228   6.807   5.795   5.672 -0.0508  0.1236  0.0373
   24CHOL    R3  229   7.026   5.876   5.533 -0.0273  0.0845  0.0522
   24CHOL    R4  230   6.816   5.846   5.330  0.0288 -0.0511  0.0123
   24CHOL    R5  231   7.014   5.754   5.327  0.0436 -0.0239  0.1110
   24CHOL    C1  232   7.026   5.952   5.001  0.0973 -0.1895  0.0117
   24CHOL    C2  233   6.744   5.790   4.768 -0.0495 -0.0611 -0.1908
   25POPS   CNO  234   6.601   6.882   6.489 -0.2871  0.1067  0.0104
   25POPS   PO4  235   6.353   6.581   6.513  0.1984  0.2254 -0.3557
   25POPS   GL1  236   6.184   6.920   6.257  0.0943  0.0475  0.3186
   25POPS   GL2  237   6.433   6.876   6.003 -0.1201  0.0165  0.0952
   25POPS   C1A  238   5.918   6.863   5.839  0.0827  0.0726 -0.0553
   25POPS   D2A  239   5.952   6.796   5.441  0.0070  0.2363  0.0093
   25POPS   C3A  240   5.961   6.752   4.977  0.1553 -0.0203 -0.1529
   25POPS   C4A  241   6.054   6.365   4.723 -0.1553  0.1441  0.0762
   25POPS   C1B  242   6.472   6.837   5.529  0.0441 -0.3561  0.0558
   25POPS   C2B  243   6.464   6.781   5.106 -0.0383 -0.1939 -0.0735
   25POPS   C3B  244   6.708   6.769   4.731  0.0461 -0.0897 -0.4515
   25POPS   C4B  245   6.753   6.869   4.285 -0.1268 -0.1990  0.0012
   26POSM   NC3  246   9.322   9.400   6.420  0.4225  0.1549 -0.0094
   26POSM   PO4  247   9.412   8.946   6.405 -0.1230 -0.2147  0.0393
   26POSM   AM1  248   9.186   8.933   6.118 -0.2861  0.1467  0.1090
   26POSM   AM2  249   8.917   9.064   6.284 -0.1979  0.0678  0.0529
   26POSM   T1A  250   9.056   8.916   5.801 -0.2033  0.0530  0.0668
   26POSM   C2A  251   8.949   8.883   5.463 -0.2694 -0.1604  0.5359
   26POSM   C3A  252   8.917   8.882   5.162 -0.0945  0.1012  0.0253
   26POSM   C1B  253   8.579   8.984   5.974 -0.0782  0.3197 -0.1949
   26POSM   D2B  254   8.391   8.912   5.667  0.1629 -0.1223 -0.2534
   26POSM   C3B  255   8.433   8.958   5.292 -0.0886  0.0299  0.1917
   26POSM   C4B  256   8.540   8.697   4.871 -0.2389  0.1017  0.2372
   27POSM   NC3  257   5.187   8.421   7.214 -0.3094  0.0266 -0.0882
   27POSM   PO4  258   5.544   8.285   7.004 -0.1955  0.0603 -0.3197
   27POSM   AM1  259   5.627   8.015   6.785 -0.0224  0.0042  0.2765
   27POSM   AM2  260   5.439   8.189   6.526 -0.0020  0.0260 -0.0570
   27POSM   T1A  261   5.803   7.906   6.344  0.1351  0.2291  0.1190
   27POSM   C2A  262   5.762   7.700   5.969  0.0053  0.1954 -0.0470
   27POSM   C3A  263   5.808   7.697   5.489  0.5246 -0.2201 -0.2092
   27POSM   C1B  264   5.487   8.265   6.074 -0.1462 -0.1060 -0.0896
   27POSM   D2B  265   5.749   8.196   5.730  0.0313 -0.1778 -0.2969
   27POSM   C3B  266   5.717   8.164   5.273  0.1305  0.0496 -0.0473
   27POSM   C4B  267   5.745   8.126   4.801 -0.2435  0.2357  0.1504
   28POPS   CNO  268   8.821   6.834   6.905 -0.0897  0.1786  0.1020
   28POPS   PO4  269   8.488   6.864   6.555 -0.1659  0.0130 -0.1607
   28POPS   GL1  270   8.571   6.808   6.137  0.2372 -0.2090  0.1084
   28POPS   GL2  271   8.723   6.550   6.014 -0.0978  0.2210 -0.3819
   28POPS   C1A  272   8.665   6.794   5.633  0.0636  0.1970  0.0187
   28POPS   D2A  273   8.628   6.822   5.146 -0.0961 -0.3239 -0.0920
   28POPS   C3A  274   8.748   6.560   4.938  0.2327  0.2931  0.2127
   28POPS   C4A  275   9.099   6.494   4.943  0.0242  0.0665 -0.1468
   28POPS   C1B  276   8.630   6.227   5.750 -0.4593 -0.2752 -0.2549
   28POPS   C2B  277   8.775   6.292   5.346 -0.2719  0.0082 -0.2155
   28POPS   C3B  278   8.633   6.039   5.064  0.1846 -0.3281  0.0705
   28POPS   C4B  279   8.394   6.200   4.709 -0.0066 -0.0166 -0.0270
   29CHOL   ROH  280   7.990   9.920   6.084 -0.0929 -0.0026  0.0869
   29CHOL    R1  281   7.962  10.048   5.832 -0.1533 -0.0224  0.0826
   29CHOL    R2  282   8.153  10.028   5.634 -0.1089  0.1175  0.1058
   29CHOL    R3  283   7.942   9.944   5.484 -0.0300 -0.0404  0.0816
   29CHOL    R4  284   8.085  10.132   5.311 -0.2410  0.1830  0.1545
   29CHOL    R5  285   7.874  10.139   5.363 -0.2439 -0.0618  0.1693
   29CHOL    C1  286   7.848  10.114   4.983 -0.2437  0.0730  0.1601
   29CHOL    C2  287   7.659   9.862   4.692  0.1061 -0.0779 -0.0479
   30POSM   NC3  288  10.192   6.826   7.005 -0.0532 -0.0474 -0.0760
   30POSM   PO4  289   9.874   7.065   6.798  0.1818  0.0368  0.3069
   30POSM   AM1  290   9.875   7.249   6.395 -0.0037 -0.0166 -0.0980
   30POSM   AM2  291   9.486   7.232   6.479 -0.3445 -0.1819 -0.2215
   30POSM   T1A  292   9.845   7.043   6.046 -0.0798 -0.3673 -0.0994
   30POSM   C2A  293   9.639   6.803   5.618 -0.1534 -0.0081 -0.2225
   30POSM   C3A  294   9.935   6.545   5.312  0.2904  0.1145  0.2393
   30POSM   C1B  295   9.551   7.450   6.093  0.0192 -0.0178  0.3371
   30POSM   D2B  296   9.562   7.787   5.864  0.0905 -0.0886 -0.0456
   30POSM   C3B  297   9.772   7.758   5.522 -0.0588 -0.2854  0.0586
   30POSM   C4B  298   9.855   8.041   5.187 -0.3649  0.0625 -0.2512
   31POPC   NC3  299   7.555   9.442   6.542 -0.3923  0.0385 -0.0152
   31POPC   PO4  300   7.640   9.648   6.270 -0.0785  0.0827 -0.1237
   31POPC   GL1  301   7.410   9.828   6.130 -0.1593 -0.0193 -0.1416
   31POPC   GL2  302   7.480  10.014   5.958  0.0609  0.0266 -0.0128
   31POPC   C1A  303   7.068   9.684   5.827 -0.0272  0.1223  0.3067
   31POPC   D2A  304   7.095   9.401   5.422  0.2426 -0.0497 -0.0328
   31POPC   C3A  305   6.986   9.529   4.931 -0.2616  0.0850  0.1572
   31POPC   C4A  306   6.900   9.497   4.514 -0.2281  0.0733 -0.1418
   31POPC   C1B  307   7.443  10.055   5.597 -0.1598 -0.0660 -0.2171
   31POPC   C2B  308   7.370  10.267   5.304 -0.1240 -0.1330  0.0624
   31POPC   C3B  309   7.352  10.376   4.879 -0.0713 -0.0274  0.1076
   31POPC   C4B  310   7.680  10.541   4.667 -0.0467  0.1349 -0.0200
   32CHOL   ROH  311   6.460   5.854   5.948  0.0008 -0.1045 -0.0970
   32CHOL    R1  312   6.322   5.783   5.711 -0.0036  0.0436 -0.1418
   32CHOL    R2  313   6.400   5.874   5.462  0.1708 -0.0279 -0.1292
   32CHOL    R3  314   6.402   5.609   5.401 -0.0831 -0.0327 -0.1158
   32CHOL    R4  315   6.399   5.745   5.141 -0.0312 -0.0686 -0.1117
   32CHOL    R5  316   6.260   5.591   5.209 -0.1430  0.0683 -0.0700
   32CHOL    C1  317   6.401   5.421   4.898 -0.3871 -0.0967 -0.0889
   32CHOL    C2  318   6.510   5.405   4.537  0.1427  0.0087  0.3529
   33CHOL   ROH  319   8.832   9.413   5.782  0.1534  0.2030 -0.0875
   33CHOL    R1  320   8.879   9.372   5.506  0.2598  0.1995 -0.0716
   33CHOL    R2  321   8.677   9.387   5.317  0.2814 -0.0272 -0.1312
   33CHOL    R3  322   8.845   9.567   5.201  0.1404  0.1193 -0.1061
   33CHOL    R4  323   8.678   9.467   4.981  0.0436  0.2502 -0.0688
   33CHOL    R5  324   8.896   9.471   4.988  0.0356  0.3175 -0.2140
   33CHOL    C1  325   8.836   9.682   4.676 -0.2273  0.5493 -0.0090
   33CHOL    C2  326   8.653   9.858   4.447 -0.5004 -0.0109  0.2953
   34CHOL   ROH  327   5.920   9.056   6.222  0.0018  0.0167  0.1484
   34CHOL    R1  328   5.887   9.089   5.942  0.0552 -0.0185  0.1385
   34CHOL    R2  329   6.077   9.212   5.784  0.0256  0.0779  0.1828
   34CHOL    R3  330   6.061   8.981   5.641  0.1927  0.0611  0.1876
   34CHOL    R4  331   6.116   9.187   5.441 -0.0136  0.1112  0.1752
   34CHOL    R5  332   5.952   9.044   5.438  0.1022 -0.0277  0.2052
   34CHOL    C1  333   6.123   8.956   5.108  0.1206  0.1148  0.1752
   34CHOL    C2  334   6.269   8.936   4.732 -0.0092 -0.1589 -0.2200
   35POPE   NH3  335   9.521   5.858   6.788  0.0208 -0.0474  0.0574
   35POPE   PO4  336  10.025   5.951   6.614  0.3035  0.1476  0.1031
   35POPE   GL1  337  10.064   5.931   6.065  0.1528 -0.3669 -0.3298
   35POPE   GL2  338   9.733   5.823   5.900  0.4176  0.0542 -0.0172
   35POPE   C1A  339  10.237   6.064   5.710 -0.2001  0.2059 -0.2858
   35POPE   D2A  340  10.471   6.060   5.334 -0.0160 -0.4003  0.0487
   35POPE   C3A  341  10.806   6.329   5.284  0.3842 -0.2117  0.2465
   35POPE   C4A  342  10.887   6.766   5.442  0.0071 -0.0283  0.1369
   35POPE   C1B  343   9.511   5.697   5.481 -0.0630 -0.0649 -0.0672
   35POPE   C2B  344   9.567   5.687   5.028 -0.1428 -0.2055 -0.0882
   35POPE   C3B  345   9.361   5.665   4.608  0.0236  0.3266  0.1388
   35POPE   C4B  346   9.389   5.851   4.197 -0.3415  0.3065 -0.0763
   36POPE   NH3  347   6.399   8.908   6.786  0.2210 -0.2372  0.1274
   36POPE   PO4  348   6.239   8.661   6.509  0.0819 -0.0405 -0.1686
   36POPE   GL1  349   6.206   8.409   6.131 -0.1987  0.0420 -0.1007
   36POPE   GL2  350   5.963   8.357   6.198 -0.0620  0.2931  0.0027
   36POPE   C1A  351   6.232   8.502   5.722 -0.0573  0.1512 -0.0879
   36POPE   D2A  352   6.105   8.541   5.346  0.0691  0.0840  0.1621
   36POPE   C3A  353   6.206   8.311   4.959 -0.2397  0.3742 -0.0697
   36POPE   C4A  354   6.480   8.470   4.600 -0.1527 -0.0661  0.1758
   36POPE   C1B  355   5.739   8.627   5.965  0.0331  0.1569  0.0257
   36POPE   C2B  356   5.668   8.616   5.490 -0.0173 -0.0700 -0.0210
   36POPE   C3B  357   5.689   8.613   5.062 -0.1003  0.4120 -0.1478
   36POPE   C4B  358   5.678   8.904   4.756  0.0567 -0.1259 -0.0165
   37POPE   NH3  359   6.678   5.549   6.512 -0.1367 -0.0260  0.0519
   37POPE   PO4  360   7.090   5.539   6.622 -0.1906  0.1105  0.1010
   37POPE   GL1  361   7.213   5.457   6.243 -0.1213 -0.3420  0.2948
   37POPE   GL2  362   7.176   5.280   6.006 -0.0153 -0.2184  0.1406
   37POPE   C1A  363   7.490   5.635   5.987 -0.2890 -0.1354 -0.0019
   37POPE   D2A  364   7.464   5.922   5.679 -0.4837 -0.0435  0.0963
   37POPE   C3A  365   7.504   5.712   5.292  0.0485 -0.0976  0.1556
   37POPE   C4A  366   7.335   5.635   4.845  0.0346 -0.0317 -0.2796
   37POPE   C1B  367   7.276   5.396   5.625 -0.2396  0.3683  0.0525
   37POPE   C2B  368   7.204   5.292   5.197  0.1566  0.1521  0.2904
   37POPE   C3B  369   6.989   5.272   4.790 -0.0484 -0.2492  0.0504
   37POPE   C4B  370   6.980   5.365   4.321  0.1407  0.0002 -0.1799
   38POPC   NC3  371   6.820   9.760   6.791  0.2578  0.0676  0.0926
   38POPC   PO4  372   6.657  10.096   6.503 -0.0093  0.0194 -0.1082
   38POPC   GL1  373   6.542   9.716   6.373 -0.0113  0.0570  0.2427
   38POPC   GL2  374   6.552   9.690   5.979  0.0947 -0.0563  0.2010
   38POPC   C1A  375   6.369   9.295   6.247  0.0471  0.0432 -0.1331
   38POPC   D2A  376   6.380   8.919   6.005 -0.1656  0.1275 -0.0566
   38POPC   C3A  377   6.556   8.831   5.564  0.0631  0.1642 -0.0704
   38POPC   C4A  378   6.594   8.788   5.131 -0.0934  0.1240 -0.1924
   38POPC   C1B  379   6.667   9.718   5.554 -0.2452 -0.1413  0.3705
   38POPC   C2B  380   6.548   9.742   5.146  0.1136  0.2228  0.3445
   38POPC   C3B  381   6.652   9.931   4.715 -0.2082  0.0361 -0.2486
   38POPC   C4B  382   7.051  10.013   4.656 -0.0296 -0.2156 -0.2240
   39POPE   NH3  383   8.739   6.352   6.505  0.0923 -0.2197  0.2743
   39POPE   PO4  384   9.070   5.932   6.593  0.1935 -0.2923  0.2123
   39POPE   GL1  385   9.248   5.831   6.165 -0.0671 -0.1662 -0.2384
   39POPE   GL2  386   9.233   5.917   5.893 -0.2365 -0.1530 -0.0344
   39POPE   C1A  387   9.456   5.446   5.945 -0.0336 -0.4177  0.1423
   39POPE   D2A  388   9.473   4.988   5.900  0.0379  0.0335  0.2195
   39POPE   C3A  389   9.553   4.728   5.466  0.3655  0.2171 -0.0799
   39POPE   C4A  390   9.775   4.833   5.098 -0.1296 -0.0678  0.0649
   39POPE   C1B  391   9.309   6.176   5.643  0.2320  0.3782  0.1136
   39POPE   C2B  392   9.461   6.267   5.313 -0.3858  0.0087 -0.3825
   39POPE   C3B  393   9.683   6.308   4.949  0.0878 -0.0880 -0.0730
   39POPE   C4B  394   9.895   6.468   4.608 -0.1955  0.0613 -0.5074
   40POPC   NC3  395   9.357   6.895   6.841 -0.1061  0.1516 -0.0537
   40POPC   PO4  396   9.502   6.718   6.490  0.2002  0.0575 -0.0908
   40POPC   GL1  397   9.701   6.589   6.131 -0.2763 -0.0784  0.2511
   40POPC   GL2  398   9.974   6.391   6.213  0.2231  0.3522  0.1982
   40POPC   C1A  399   9.786   6.293   5.725  0.0242  0.2126 -0.2242
   40POPC   D2A  400   9.889   6.042   5.326  0.0373  0.1270 -0.3547
   40POPC   C3A  401  10.184   6.144   4.930 -0.1432 -0.1801 -0.0060
   40POPC   C4A  402  10.604   6.131   4.863 -0.1155 -0.2035  0.0519
   40POPC   C1B  403  10.188   6.607   5.878 -0.1983 -0.2759 -0.1179
   40POPC   C2B  404  10.453   6.513   5.583  0.2563 -0.2554 -0.0408
   40POPC   C3B  405  10.411   6.581   5.198  0.2732  0.2656 -0.1550
   40POPC   C4B  406  10.406   6.593   4.843 -0.2222  0.1088 -0.0819
   41POSM   NC3  407   8.057   5.766   6.695 -0.6232 -0.1351  0.1662
   41POSM   PO4  408   8.171   5.368   6.415  0.0303  0.2536  0.2019
   41POSM   AM1  409   8.027   5.504   6.042 -0.0404  0.3368  0.1873
   41POSM   AM2  410   8.164   5.257   5.892 -0.3045 -0.0222 -0.1006
   41POSM   T1A  411   7.893   5.597   5.614 -0.0650 -0.1751  0.0192
   41POSM   C2A  412   7.940   5.574   5.083  0.0249  0.1678  0.1208
   41POSM   C3A  413   8.296   5.752   4.872 -0.0086  0.0727  0.2057
   41POSM   C1B  414   8.260   5.213   5.426  0.3822  0.0051 -0.3029
   41POSM   D2B  415   8.293   5.259   5.008 -0.4256  0.0040 -0.2707
   41POSM   C3B  416   8.204   5.342   4.580  0.0006 -0.2200  0.4066
   41POSM   C4B  417   8.127   5.458   4.172 -0.1081  0.0864 -0.1242
   42POSM   NC3  418   5.032   6.755   6.489  0.1160  0.1439 -0.0341
   42POSM   PO4  419   5.386   6.701   6.489  0.0670 -0.2245 -0.0453
   42POSM   AM1  420   5.325   6.706   6.092 -0.2363 -0.0093  0.1452
   42POSM   AM2  421   5.267   7.122   6.207 -0.2456  0.0886  0.1763
   42POSM   T1A  422   5.444   6.796   5.716 -0.1884 -0.0611 -0.1248
   42POSM   C2A  423   5.442   6.796   5.273  0.1714 -0.1060 -0.0998
   42POSM   C3A  424   5.174   6.783   4.890  0.0517  0.1006  0.0997
   42POSM   C1B  425   5.405   7.312   5.865  0.0129  0.1610 -0.2536
   42POSM   D2B  426   5.679   7.202   5.561 -0.1867 -0.0769 -0.0638
   42POSM   C3B  427   5.801   7.207   5.124 -0.0395  0.1642  0.0000
   42POSM   C4B  428   5.460   7.197   4.867  0.0001 -0.0501  0.1763
   43CHOL   ROH  429   9.700   9.122   6.011 -0.0525 -0.1169 -0.0909
   43CHOL    R1  430   9.837   9.149   5.764 -0.0668  0.0723 -0.0802
   43CHOL    R2  431   9.763   9.009   5.537  0.1786 -0.0809 -0.0724
   43CHOL    R3  432   9.755   9.258   5.427 -0.2119 -0.1013 -0.1018
   43CHOL    R4  433   9.802   9.077   5.201  0.4176 -0.0339 -0.0368
   43CHOL    R5  434   9.921   9.251   5.254  0.0009  0.2243  0.0840
   43CHOL    C1  435   9.817   9.349   4.900  0.1902 -0.0258 -0.0436
   43CHOL    C2  436   9.718   9.609   4.608 -0.1142  0.0810 -0.1001
   44POSM   NC3  437   9.712   8.530   6.694  0.0931  0.1015 -0.0203
   44POSM   PO4  438   9.749   8.134   6.539 -0.0589  0.1204 -0.0642
   44POSM   AM1  439   9.722   8.228   6.076 -0.1145  0.2884 -0.0254
   44POSM   AM2  440   9.782   8.574   6.125 -0.3032  0.3025  0.1581
   44POSM   T1A  441   9.737   8.252   5.633  0.2423 -0.2208 -0.2940
   44POSM   C2A  442   9.797   8.534   5.333  0.0017 -0.1157  0.2444
   44POSM   C3A  443   9.668   8.513   4.902 -0.1612  0.0151 -0.0693
   44POSM   C1B  444   9.983   8.659   5.809 -0.0360 -0.0146  0.2362
   44POSM   D2B  445  10.183   8.813   5.401 -0.2773 -0.1039 -0.1025
   44POSM   C3B  446  10.176   8.479   5.069  0.1033  0.4256  0.2485
   44POSM   C4B  447  10.108   8.162   4.819 -0.1913 -0.2760  0.0022
   45POPC   NC3  448   5.775   7.126   6.353 -0.2883  0.0129  0.0163
   45POPC   PO4  449   5.538   7.543   6.537  0.0344  0.0051  0.0088
   45POPC   GL1  450   5.300   7.664   6.167 -0.3247  0.0887 -0.1029
   45POPC   GL2  451   4.963   7.593   6.059 -0.0970  0.2055  0.0978
   45POPC   C1A  452   5.294   7.766   5.696 -0.2056 -0.0258  0.0878
   45POPC   D2A  453   5.275   7.815   5.314  0.2518  0.0630  0.2186
   45POPC   C3A  454   5.534   7.763   5.023  0.1685  0.0974 -0.4929
   45POPC   C4A  455   5.945   7.688   5.011  0.0380  0.0914 -0.2443
   45POPC   C1B  456   4.818   7.771   5.642 -0.1520  0.0188 -0.1181
   45POPC   C2B  457   4.863   7.924   5.167  0.0820 -0.0619  0.2099
   45POPC   C3B  458   4.618   7.649   4.785 -0.1597  0.1798  0.1996
   45POPC   C4B  459   4.256   7.375   4.650 -0.2953 -0.1356  0.3006
   46CHOL   ROH  460   6.660   5.362   6.022 -0.1843 -0.1236  0.2539
   46CHOL    R1  461   6.589   5.354   5.748  0.0472 -0.0328  0.1938
   46CHOL    R2  462   6.777   5.364   5.545  0.2265 -0.1969  0.3735
   46CHOL    R3  463   6.654   5.136   5.465  0.0775 -0.0721  0.2220
   46CHOL    R4  464   6.725   5.274   5.216  0.7089 -0.1848  0.2839
   46CHOL    R5  465   6.528   5.201   5.272  0.4900  0.0705 -0.0329
   46CHOL    C1  466   6.580   5.006   4.948  0.8498 -0.0606  0.0895
   46CHOL    C2  467   6.370   4.704   4.801  0.1490 -0.3118  0.0090
   47CHOL   ROH  468   6.242   6.401   6.028  0.3414 -0.1078  0.0172
   47CHOL    R1  469   6.113   6.401   5.775 -0.1027 -0.1736  0.2352
   47CHOL    R2  470   6.253   6.381   5.537 -0.4538  0.3669 -0.0400
   47CHOL    R3  471   6.084   6.172   5.494 -0.0495  0.0016  0.0840
   47CHOL    R4  472   6.181   6.246   5.227 -0.5810  0.3703 -0.0127
   47CHOL    R5  473   5.973   6.227   5.289 -0.4617 -0.1340  0.2673
   47CHOL    C1  474   5.981   5.971   5.007 -0.2755  0.0294  0.1197
   47CHOL    C2  475   5.751   5.979   4.775  0.1570  0.0756 -0.1996
   48CHOL   ROH  476   9.301   9.417   5.953  0.1204 -0.0911  0.1710
   48CHOL    R1  477   9.400   9.391   5.690  0.0532 -0.1775  0.1538
   48CHOL    R2  478   9.289   9.217   5.505 -0.1296 -0.0831  0.1727
   48CHOL    R3  479   9.272   9.441   5.353  0.0381 -0.0669  0.1756
   48CHOL    R4  480   9.300   9.224   5.160 -0.1942 -0.0950  0.1705
   48CHOL    R5  481   9.423   9.402   5.171 -0.0320 -0.2023  0.1447
   48CHOL    C1  482   9.289   9.439   4.816 -0.0743 -0.0868  0.1718
   48CHOL    C2  483   9.311   9.315   4.470  0.1602  0.2058  0.0402
   49POPE   NH3  484   8.480   9.783   6.489 -0.1829 -0.0445  0.0733
   49POPE   PO4  485   8.848   9.563   6.342 -0.0026  0.2574  0.2788
   49POPE   GL1  486   8.677   9.860   6.035 -0.1072 -0.1156 -0.1536
   49POPE   GL2  487   8.521  10.133   6.025  0.1021  0.3067  0.0466
   49POPE   C1A  488   8.643   9.829   5.616 -0.0233 -0.2008  0.1869
   49POPE   D2A  489   8.768  10.031   5.329  0.1160 -0.0852  0.1198
   49POPE   C3A  490   8.473   9.854   5.074 -0.1021  0.3169 -0.0837
   49POPE   C4A  491   8.224   9.908   4.715 -0.1584  0.3411 -0.0381
   49POPE   C1B  492   8.593  10.309   5.672  0.0824  0.0920  0.1430
   49POPE   C2B  493   8.462  10.435   5.232 -0.2646 -0.1786  0.0368
   49POPE   C3B  494   8.627  10.260   4.896 -0.2670  0.0633 -0.0373
   49POPE   C4B  495   8.936  10.227   4.602 -0.0807 -0.5527  0.2569
   50CHOL   ROH  496   8.983  10.445   5.994  0.1850  0.1665 -0.0275
   50CHOL    R1  497   9.059  10.556   5.745  0.0531  0.2582 -0.0283
   50CHOL    R2  498   9.070  10.407   5.512  0.2829  0.2535 -0.0198
   50CHOL    R3  499   8.906  10.602   5.418  0.0139  0.0208 -0.0442
   50CHOL    R4  500   9.032  10.489   5.179  0.2240  0.2138 -0.0225
   50CHOL    R5  501   9.027  10.699   5.236 -0.0935  0.2068 -0.0159
   50CHOL    C1  502   8.855  10.720   4.896 -0.0629 -0.0277 -0.0470
   50CHOL    C2  503   8.478  10.740   4.826  0.1427  0.3406  0.0387
   51POSM   NC3  504   5.237   7.897   7.094  0.0522  0.4967  0.2602
   51POSM   PO4  505   4.983   8.226   6.807  0.1488 -0.1634 -0.5920
   51POSM   AM1  506   4.835   8.235   6.500  0.0946  0.1122 -0.0212
   51POSM   AM2  507   5.028   8.173   6.257 -0.1794  0.0765 -0.0024
   51POSM   T1A  508   4.659   8.576   6.154 -0.0228  0.3228  0.1507
   51POSM   C2A  509   4.585   8.536   5.814 -0.0050  0.0476 -0.1800
   51POSM   C3A  510   4.721   8.380   5.492  0.4736  0.1767  0.3186
   51POSM   C1B  511   4.935   8.182   5.892  0.1355 -0.2373  0.1007
   51POSM   D2B  512   5.274   8.301   5.618 -0.1695 -0.1742 -0.0599
   51POSM   C3B  513   5.238   8.390   5.222  0.1359 -0.2442 -0.0944
   51POSM   C4B  514   5.196   8.103   4.824 -0.0092  0.2779  0.0533
   52POPC   NC3  515   8.780   5.698   6.905  0.2359  0.0471  0.1177
   52POPC   PO4  516   8.532   5.889   6.665 -0.1850 -0.0997  0.1680
   52POPC   GL1  517   8.300   5.915   6.242  0.1105  0.4800  0.1419
   52POPC   GL2  518   8.355   6.198   6.139 -0.0033 -0.1708  0.0657
   52POPC   C1A  519   8.378   5.811   5.838 -0.0269  0.2822 -0.2228
   52POPC   D2A  520   8.373   5.674   5.395 -0.0824 -0.1214  0.0356
   52POPC   C3A  521   8.627   5.596   5.206  0.0313 -0.0435  0.1780
   52POPC   C4A  522   8.833   5.676   4.831 -0.0965 -0.0733  0.2268
   52POPC   C1B  523   8.246   6.437   5.897  0.2422  0.0838  0.1328
   52POPC   C2B  524   8.248   6.487   5.508  0.1451 -0.3256  0.1095
   52POPC   C3B  525   8.273   6.414   5.171 -0.2621 -0.3138  0.3322
   52POPC   C4B  526   8.229   6.644   4.799  0.1507  0.2455 -0.0191
   53POPC   NC3  527   9.951   7.591   6.738  0.0010 -0.2302  0.0888
   53POPC   PO4  528  10.211   7.953   6.759 -0.0628 -0.0507  0.0509
   53POPC   GL1  529  10.262   7.747   6.375 -0.1022 -0.3392  0.0467
   53POPC   GL2  530   9.894   7.771   6.205 -0.0850 -0.0991  0.0065
   53POPC   C1A  531  10.572   7.747   6.099  0.0052  0.1404  0.2183
   53POPC   D2A  532  10.891   7.725   5.710  0.0245 -0.0035 -0.2159
   53POPC   C3A  533  10.747   7.635   5.221 -0.0609 -0.2698  0.0616
   53POPC   C4A  534  10.592   7.801   4.774  0.2646  0.3040 -0.1496
   53POPC   C1B  535   9.989   7.460   5.857 -0.3255 -0.2960  0.2318
   53POPC   C2B  536  10.048   7.137   5.591 -0.0636 -0.0081  0.1257
   53POPC   C3B  537  10.109   6.970   5.168 -0.0819  0.1231  0.1536
   53POPC   C4B  538   9.941   6.981   4.820 -0.0472  0.0694 -0.3526
   54POPE   NH3  539   7.729  10.141   6.572 -0.2908  0.2908 -0.3338
   54POPE   PO4  540   7.759  10.588   6.492 -0.0189  0.0405 -0.0666
   54POPE   GL1  541   7.857  10.449   6.218  0.0164 -0.3669  0.0595
   54POPE   GL2  542   8.185  10.534   6.015 -0.1502 -0.0481  0.2876
   54POPE   C1A  543   7.737  10.455   5.753  0.0056 -0.1845 -0.1454
   54POPE   D2A  544   7.729  10.622   5.366  0.0363  0.0049  0.0483
   54POPE   C3A  545   8.043  10.559   5.008  0.0849  0.0267  0.1247
   54POPE   C4A  546   8.172  10.348   4.552 -0.1263 -0.0098  0.2748
   54POPE   C1B  547   8.202  10.631   5.740  0.1957 -0.0893 -0.3887
   54POPE   C2B  548   8.181  10.875   5.371 -0.1239 -0.0434  0.0290
   54POPE   C3B  549   8.168  11.188   5.035  0.1261  0.0149 -0.2748
   54POPE   C4B  550   8.257  11.383   4.786 -0.1239 -0.0984 -0.1506
   55CHOL   ROH  551   5.955   6.037   5.930  0.3044 -0.1461 -0.1751
   55CHOL    R1  552   5.848   5.839   5.757  0.2897 -0.1832 -0.1242
   55CHOL    R2  553   5.717   5.902   5.521  0.0738 -0.2239 -0.0134
   55CHOL    R3  554   5.901   5.734   5.413  0.0906 -0.1010 -0.1818
   55CHOL    R4  555   5.689   5.749   5.213 -0.1783 -0.3423  0.0652
   55CHOL    R5  556   5.772   5.568   5.300  0.0862 -0.2506  0.0277
   55CHOL    C1  557   5.845   5.501   4.932 -0.3094 -0.2958 -0.0471
   55CHOL    C2  558   5.828   5.545   4.621 -0.2571 -0.1109 -0.0462
   56POPC   NC3  559   5.777   8.597   6.639 -0.0019  0.0535 -0.1067
   56POPC   PO4  560   5.549   8.937   6.531  0.1837  0.2732 -0.1483
   56POPC   GL1  561   5.344   9.150   6.195 -0.1305  0.1151 -0.1810
   56POPC   GL2  562   5.474   9.400   6.157 -0.0811  0.0772 -0.0085
   56POPC   C1A  563   5.456   9.057   5.746  0.1397  0.0142  0.3091
   56POPC   D2A  564   5.457   9.034   5.313  0.1571 -0.1464 -0.0320
   56POPC   C3A  565   5.684   9.286   5.132 -0.0350 -0.0192 -0.1643
   56POPC   C4A  566   5.927   9.346   4.779 -0.0602 -0.1755 -0.0617
   56POPC   C1B  567   5.650   9.526   5.763  0.0298  0.3102 -0.1117
   56POPC   C2B  568   5.538   9.625   5.405  0.1259 -0.2516 -0.1842
   56POPC   C3B  569   5.620   9.799   5.121 -0.1321  0.0362  0.0112
   56POPC   C4B  570   5.841  10.001   4.785  0.4190 -0.2385  0.2519
   57POSM   NC3  571   9.001  10.417   6.846  0.3933 -0.1527  0.0216
   57POSM   PO4  572   9.191  10.671   6.507  0.0974  0.0534 -0.0859
   57POSM   AM1  573   9.394  10.304   6.192  0.0759  0.2292  0.0102
   57POSM   AM2  574   9.292   9.938   6.270 -0.1193  0.5874  0.1156
   57POSM   T1A  575   9.590  10.242   5.829  0.1236 -0.1438 -0.0583
   57POSM   C2A  576   9.563  10.233   5.393 -0.2023 -0.3222 -0.0269
   57POSM   C3A  577   9.639  10.259   5.014  0.3876  0.0446 -0.2938
   57POSM   C1B  578   9.154   9.970   5.827  0.0633  0.1516  0.1525
   57POSM   D2B  579   9.233   9.899   5.477 -0.0166  0.0679 -0.2104
   57POSM   C3B  580   9.247   9.896   5.107 -0.0495  0.0832  0.1752
   57POSM   C4B  581   9.340   9.967   4.670  0.1383  0.1870 -0.1899
   58POSM   NC3  582   5.916   9.664   7.123  0.1516 -0.1392 -0.0073
   58POSM   PO4  583   6.318   9.733   6.823 -0.2485  0.1568  0.3427
   58POSM   AM1  584   6.054   9.774   6.444  0.3333 -0.2359  0.0938
   58POSM   AM2  585   6.158  10.086   6.338  0.0142  0.0503  0.0196
   58POSM   T1A  586   6.010   9.636   6.072 -0.5081  0.0877  0.2724
   58POSM   C2A  587   6.199   9.691   5.645 -0.1689  0.1211 -0.0279
   58POSM   C3A  588   6.080   9.596   5.204  0.2935  0.0696 -0.1475
   58POSM   C1B  589   6.275  10.101   5.931  0.1932  0.1376  0.0347
   58POSM   D2B  590   6.503  10.171   5.787 -0.0592  0.1822  0.1118
   58POSM   C3B  591   6.487  10.218   5.353 -0.1104  0.1828  0.1383
   58POSM   C4B  592   6.367  10.317   4.902 -0.0135  0.0685 -0.0805
   59POSM   NC3  593   9.773   4.656   6.499  0.0740  0.3718  0.1625
   59POSM   PO4  594  10.151   4.852   6.529 -0.0772  0.1764 -0.3298
   59POSM   AM1  595  10.043   5.082   6.106  0.3052  0.1345  0.0163
   59POSM   AM2  596  10.150   5.408   6.022  0.0237 -0.1248  0.2228
   59POSM   T1A  597   9.836   5.085   5.593  0.1811 -0.3007 -0.3558
   59POSM   C2A  598   9.462   5.210   5.352 -0.0722 -0.0363 -0.0120
   59POSM   C3A  599   9.176   5.400   5.026 -0.1576  0.1578  0.0118
   59POSM   C1B  600   9.989   5.576   5.627 -0.3058  0.0368  0.2770
   59POSM   D2B  601   9.952   5.476   5.286 -0.2688 -0.2249  0.1167
   59POSM   C3B  602  10.194   5.649   4.924 -0.1827  0.0613  0.3625
   59POSM   C4B  603  10.315   5.744   4.601  0.3461 -0.1119 -0.1175
   60POPE   NH3  604  11.112   6.895   6.600  0.1142  0.1688  0.1394
   60POPE   PO4  605  10.658   6.773   6.711  0.2514  0.0328  0.0770
   60POPE   GL1  606  10.799   6.577   6.356 -0.0764  0.0062  0.2179
   60POPE   GL2  607  10.501   6.261   6.192 -0.2299  0.2643 -0.2151
   60POPE   C1A  608  10.789   6.719   5.944 -0.0392 -0.2196 -0.3505
   60POPE   D2A  609  10.520   7.006   5.631 -0.1689  0.2644  0.1406
   60POPE   C3A  610  10.509   7.148   5.300 -0.1542  0.0060 -0.1824
   60POPE   C4A  611  10.423   7.291   4.925  0.2281  0.0254  0.0418
   60POPE   C1B  612  10.757   6.182   5.819 -0.0788 -0.0429  0.1727
   60POPE   C2B  613  10.916   5.907   5.489 -0.2574 -0.1702  0.0420
   60POPE   C3B  614  11.079   5.911   5.083  0.2759  0.0020 -0.0239
   60POPE   C4B  615  11.065   5.845   4.693 -0.0376  0.4614 -0.0583
   61CHOL   ROH  616   7.650   5.169   5.959 -0.2924  0.0648 -0.0012
   61CHOL    R1  617   7.742   5.091   5.703 -0.2301  0.0373  0.0292
   61CHOL    R2  618   7.570   5.012   5.501 -0.1938  0.1763 -0.0544
   61CHOL    R3  619   7.697   5.206   5.360 -0.0032  0.1106  0.0223
   61CHOL    R4  620   7.592   5.023   5.157  0.1154  0.1048 -0.0407
   61CHOL    R5  621   7.799   5.089   5.177  0.1233  0.0407  0.1315
   61CHOL    C1  622   7.724   5.211   4.823  0.4743  0.0013  0.0392
   61CHOL    C2  623   7.420   5.205   4.518  0.0052  0.0968 -0.1804
   62POPE   NH3  624   6.886   5.080   6.474 -0.1770 -0.1952  0.0262
   62POPE   PO4  625   6.462   4.985   6.500 -0.1638  0.0363  0.1618
   62POPE   GL1  626   6.616   4.861   6.105  0.0089 -0.0172  0.0478
   62POPE   GL2  627   6.929   4.806   5.973  0.1929  0.0166 -0.3789
   62POPE   C1A  628   6.596   4.676   5.682 -0.1681 -0.3227  0.3266
   62POPE   D2A  629   6.547   4.533   5.240 -0.2224 -0.1516 -0.3024
   62POPE   C3A  630   6.808   4.408   4.819  0.1977 -0.2548 -0.0023
   62POPE   C4A  631   6.694   4.359   4.496 -0.0766  0.2642 -0.1977
   62POPE   C1B  632   7.070   4.948   5.537 -0.1444  0.0697  0.1281
   62POPE   C2B  633   6.967   4.821   5.192 -0.2116 -0.1988  0.2731
   62POPE   C3B  634   7.210   4.790   4.806 -0.2533 -0.1070  0.1453
   62POPE   C4B  635   7.597   4.686   4.494  0.1653  0.0579  0.2298
   63CHOL   ROH  636   4.811   6.988   6.055  0.2009 -0.0143 -0.1039
   63CHOL    R1  637   4.976   7.010   5.826  0.0236 -0.0397 -0.2369
   63CHOL    R2  638   4.877   6.996   5.569 -0.1908  0.0238 -0.1627
   63CHOL    R3  639   5.005   7.234   5.541 -0.1387 -0.0130 -0.2329
   63CHOL    R4  640   4.914   7.164   5.270  0.0825 -0.2001 -0.2587
   63CHOL    R5  641   5.118   7.215   5.330  0.0375 -0.1813 -0.1250
   63CHOL    C1  642   5.056   7.486   5.069  0.2906 -0.3650 -0.3806
   63CHOL    C2  643   5.107   7.634   4.833  0.1903 -0.0560 -0.0086
   64CHOL   ROH  644  10.180   8.279   6.214  0.1290 -0.4912  0.0737
   64CHOL    R1  645  10.330   8.168   6.001  0.0249 -0.3941 -0.0538
   64CHOL    R2  646  10.212   8.047   5.783 -0.0876 -0.2316 -0.0928
   64CHOL    R3  647  10.362   8.225   5.643 -0.0991 -0.1739 -0.0300
   64CHOL    R4  648  10.334   7.995   5.464 -0.0706 -0.1062 -0.1064
   64CHOL    R5  649  10.520   8.089   5.525 -0.0852 -0.1136 -0.0720
   64CHOL    C1  650  10.546   8.131   5.146 -0.0716  0.0209 -0.0553
   64CHOL    C2  651  10.602   8.313   4.802 -0.0284  0.0135 -0.1121
   65CHOL   ROH  652   4.836   6.466   6.126 -0.1126 -0.2114 -0.0643
   65CHOL    R1  653   4.885   6.556   5.863 -0.2284 -0.1142 -0.0533
   65CHOL    R2  654   5.048   6.418   5.687 -0.0469  0.1183 -0.0663
   65CHOL    R3  655   4.829   6.431   5.526 -0.0635 -0.1481 -0.0698
   65CHOL    R4  656   5.056   6.419   5.341 -0.0506 -0.0688 -0.0684
   65CHOL    R5  657   4.898   6.568   5.342 -0.1746 -0.1920 -0.1489
   65CHOL    C1  658   4.856   6.431   4.989 -0.0683 -0.4278 -0.0729
   65CHOL    C2  659   4.618   6.592   4.732  0.2624 -0.1245  0.0720
   66CHOL   ROH  660   5.212   8.654   6.138 -0.0793 -0.0305 -0.0106
   66CHOL    R1  661   5.061   8.663   5.899  0.1155 -0.2177 -0.1436
   66CHOL    R2  662   4.996   8.900   5.774 -0.2272 -0.2786 -0.0918
   66CHOL    R3  663   5.112   8.780   5.559  0.2041  0.0345 -0.0478
   66CHOL    R4  664   4.953   9.000   5.445 -0.3521 -0.3685 -0.1033
   66CHOL    R5  665   4.944   8.789   5.388  0.2416 -0.4097 -0.1230
   66CHOL    C1  666   5.037   8.945   5.052 -0.0199 -0.1269 -0.0688
   66CHOL    C2  667   4.761   9.114   4.921 -0.3081 -0.0821  0.0596
   67POPE   NH3  668   8.564   5.142   6.145 -0.1551  0.0993  0.1369
   67POPE   PO4  669   9.039   5.088   6.217 -0.1570 -0.1006 -0.3844
   67POPE   GL1  670   8.942   5.464   5.947  0.0562 -0.0086 -0.1215
   67POPE   GL2  671   9.080   5.209   5.696 -0.3610  0.3018  0.2546
   67POPE   C1A  672   8.867   5.723   5.613  0.3305 -0.1048 -0.0642
   67POPE   D2A  673   9.062   5.879   5.313 -0.2143  0.3017  0.0129
   67POPE   C3A  674   9.226   6.032   4.906  0.0351 -0.0974 -0.0146
   67POPE   C4A  675   9.353   6.263   4.487  0.2799 -0.2406 -0.1881
   67POPE   C1B  676   8.848   5.197   5.334 -0.3223 -0.2380  0.0044
   67POPE   C2B  677   8.764   5.057   5.023 -0.0832  0.0077  0.1255
   67POPE   C3B  678   8.557   4.903   4.682  0.1398 -0.1798 -0.3818
   67POPE   C4B  679   8.446   4.915   4.222  0.2021  0.0476  0.1526
   68POSM   NC3  680   7.333   9.958   7.148  0.1489  0.0765  0.1914
   68POSM   PO4  681   7.262   9.976   6.656  0.0493 -0.1385 -0.0890
   68POSM   AM1  682   7.152  10.310   6.402 -0.1536 -0.3028 -0.0172
   68POSM   AM2  683   7.003  10.078   6.174  0.1846  0.1389  0.1535
   68POSM   T1A  684   7.279  10.556   5.885  0.3371  0.2455  0.0047
   68POSM   C2A  685   7.258  10.757   5.532 -0.3062  0.0891 -0.2883
   68POSM   C3A  686   7.185  10.757   5.163 -0.4554 -0.0628  0.0318
   68POSM   C1B  687   6.965  10.121   5.714 -0.1040  0.0604  0.2534
   68POSM   D2B  688   7.044   9.911   5.364 -0.1786  0.3079  0.1255
   68POSM   C3B  689   6.887  10.209   5.051  0.0858 -0.1638  0.1000
   68POSM   C4B  690   6.806  10.486   4.691 -0.0014 -0.0568 -0.0552
   69POPS   CNO  691   9.867   9.404   6.429  0.1456 -0.1743  0.1076
   69POPS   PO4  692   9.779   9.806   6.372 -0.2060  0.0291 -0.0222
   69POPS   GL1  693   9.757   9.679   5.921  0.1052 -0.2990 -0.1452
   69POPS   GL2  694   9.980   9.564   5.915  0.0152 -0.0216 -0.2688
   69POPS   C1A  695   9.678   9.755   5.552 -0.0363  0.0005  0.2475
   69POPS   D2A  696   9.778   9.796   5.138 -0.0003  0.1042 -0.0991
   69POPS   C3A  697  10.019   9.975   4.777  0.0970  0.1519 -0.2654
   69POPS   C4A  698  10.095   9.952   4.319  0.2027 -0.2573 -0.3064
   69POPS   C1B  699  10.163   9.583   5.504  0.2174 -0.0285  0.0888
   69POPS   C2B  700  10.228   9.606   5.016 -0.0652 -0.2215 -0.2145
   69POPS   C3B  701  10.196   9.517   4.576 -0.2351  0.0801 -0.2670
   69POPS   C4B  702  10.528   9.576   4.276 -0.1838  0.0750 -0.3597
   70POPE   NH3  703   7.234   4.525   6.257  0.2560 -0.1761  0.0547
   70POPE   PO4  704   7.356   4.918   6.331  0.0028 -0.1705 -0.0399
   70POPE   GL1  705   7.428   4.706   5.861 -0.1785 -0.0140  0.0420
   70POPE   GL2  706   7.711   4.634   5.803 -0.4082  0.1258 -0.0930
   70POPE   C1A  707   7.381   4.562   5.362 -0.2231  0.5823  0.2565
   70POPE   D2A  708   7.296   4.251   5.034 -0.2371  0.1935  0.2744
   70POPE   C3A  709   7.484   4.066   4.857 -0.2500 -0.0057 -0.2423
   70POPE   C4A  710   7.663   4.083   4.486  0.2487  0.0233  0.2234
   70POPE   C1B  711   7.896   4.543   5.474 -0.4540  0.1234  0.0767
   70POPE   C2B  712   8.199   4.787   5.099 -0.1597  0.1235 -0.3361
   70POPE   C3B  713   8.053   4.889   4.704  0.2301 -0.1470  0.1836
   70POPE   C4B  714   7.881   5.019   4.334  0.0175 -0.0269 -0.1831
   71POPS   CNO  715  11.405   7.719   6.502  0.0724 -0.1773  0.1167
   71POPS   PO4  716  11.292   7.361   6.620  0.3143 -0.1457 -0.3055
   71POPS   GL1  717  11.036   7.232   6.189  0.0285  0.1935  0.1543
   71POPS   GL2  718  10.758   7.140   6.350  0.0533  0.1063  0.0381
   71POPS   C1A  719  10.917   7.176   5.787  0.0998 -0.0550 -0.0423
   71POPS   D2A  720  11.033   7.242   5.430 -0.0244 -0.1827  0.0547
   71POPS   C3A  721  10.919   7.099   5.001  0.0107  0.0527  0.1934
   71POPS   C4A  722  10.781   7.262   4.622  0.2594 -0.0041  0.1729
   71POPS   C1B  723  10.429   7.288   6.021 -0.0410  0.1356 -0.0489
   71POPS   C2B  724  10.420   7.550   5.646 -0.0280  0.4184 -0.3069
   71POPS   C3B  725  10.131   7.560   5.259 -0.2662 -0.0306  0.2415
   71POPS   C4B  726  10.129   7.631   4.894 -0.0362  0.0622 -0.1778
   72POPS   CNO  727  10.536   8.728   7.088  0.3669  0.1623 -0.3728
   72POPS   PO4  728  10.496   8.905   6.740 -0.1760 -0.0494  0.0284
   72POPS   GL1  729  10.790   8.912   6.479  0.2000 -0.1372 -0.0459
   72POPS   GL2  730  10.505   8.649   6.289  0.3197  0.0548  0.1211
   72POPS   C1A  731  10.910   8.698   6.075 -0.3413 -0.0814 -0.3469
   72POPS   D2A  732  11.268   8.414   6.024 -0.1435  0.1186  0.1099
   72POPS   C3A  733  11.484   8.375   5.635  0.2401  0.0023 -0.3580
   72POPS   C4A  734  11.497   8.188   5.287 -0.1981 -0.1241 -0.1307
   72POPS   C1B  735  10.458   8.696   5.881 -0.0007  0.1094  0.1724
   72POPS   C2B  736  10.746   8.630   5.510  0.1419  0.2875 -0.3851
   72POPS   C3B  737  10.663   8.763   5.091  0.2693  0.0495 -0.1816
   72POPS   C4B  738  10.560   8.780   4.675 -0.4016  0.1375  0.2829
   73POPE   NH3  739   4.408   8.047   6.778  0.1458  0.7018 -0.3465
   73POPE   PO4  740   4.014   8.359   6.807  0.2851 -0.3049  0.1911
   73POPE   GL1  741   4.211   8.453   6.423  0.0033  0.2518  0.0611
   73POPE   GL2  742   4.345   8.144   6.254  0.2127 -0.3936  0.0915
   73POPE   C1A  743   4.149   8.602   6.021  0.3638  0.1703 -0.1911
   73POPE   D2A  744   4.188   8.513   5.527  0.2918  0.0341  0.0566
   73POPE   C3A  745   4.144   8.838   5.179 -0.0275  0.1578  0.2668
   73POPE   C4A  746   3.870   8.771   4.808  0.1691 -0.0662  0.2038
   73POPE   C1B  747   4.319   8.145   5.884 -0.2063  0.1561  0.0355
   73POPE   C2B  748   4.379   8.042   5.503 -0.0398  0.2022 -0.0029
   73POPE   C3B  749   4.392   8.239   5.120  0.2049  0.0318 -0.0146
   73POPE   C4B  750   3.970   8.119   4.862  0.1026 -0.0126 -0.0726
   74POSM   NC3  751   8.718  10.890   6.725  0.0471  0.1315 -0.0842
   74POSM   PO4  752   8.694  10.597   6.387 -0.3552  0.2570  0.1697
   74POSM   AM1  753   8.585  10.851   6.101  0.4650 -0.1221  0.3000
   74POSM   AM2  754   8.553  11.197   6.260 -0.2394  0.0184 -0.1989
   74POSM   T1A  755   8.650  10.967   5.655 -0.0973  0.0918 -0.4365
   74POSM   C2A  756   8.618  11.081   5.302 -0.0102  0.1034  0.0762
   74POSM   C3A  757   8.656  11.388   5.110 -0.0319 -0.4336  0.0782
   74POSM   C1B  758   8.630  11.416   5.911  0.3681  0.1365 -0.0277
   74POSM   D2B  759   8.802  11.638   5.607  0.0917  0.0227 -0.0740
   74POSM   C3B  760   9.065  11.671   5.279  0.2201 -0.0735  0.1004
   74POSM   C4B  761   9.002  11.668   4.864  0.1228  0.2475 -0.1006
   75POPC   NC3  762   6.060   6.186   6.449 -0.0599  0.1125  0.1228
   75POPC   PO4  763   6.220   5.790   6.379  0.1064 -0.0262 -0.0005
   75POPC   GL1  764   6.096   5.417   6.087  0.0912 -0.0793 -0.1689
   75POPC   GL2  765   6.182   5.172   6.123  0.0119 -0.0413 -0.2626
   75POPC   C1A  766   6.034   5.322   5.617 -0.0737 -0.1318  0.1393
   75POPC   D2A  767   6.084   5.029   5.206 -0.0593 -0.4096  0.1482
   75POPC   C3A  768   6.038   5.084   4.756 -0.1828  0.1531  0.1215
   75POPC   C4A  769   6.135   4.916   4.352 -0.2731 -0.0588  0.1073
   75POPC   C1B  770   6.143   4.905   5.802 -0.1300  0.0647 -0.2488
   75POPC   C2B  771   6.037   4.618   5.493  0.0744 -0.3898  0.1886
   75POPC   C3B  772   5.917   4.594   4.969 -0.4837 -0.3500  0.2171
   75POPC   C4B  773   5.734   4.243   4.691 -0.5134  0.0227 -0.4314
   76POSM   NC3  774   5.351   6.282   7.213 -0.0312  0.3070  0.0425
   76POSM   PO4  775   5.250   6.107   6.793  0.1313 -0.1901  0.1211
   76POSM   AM1  776   5.349   6.207   6.353 -0.2242  0.0400 -0.3009
   76POSM   AM2  777   5.114   5.988   6.261  0.2417  0.0013  0.0819
   76POSM   T1A  778   5.581   6.288   5.907 -0.0720  0.1603  0.1187
   76POSM   C2A  779   5.571   6.372   5.518  0.0819  0.0629  0.0975
   76POSM   C3A  780   5.619   6.367   4.986 -0.0569  0.0162  0.2416
   76POSM   C1B  781   5.264   5.906   5.845  0.0844  0.1501 -0.0309
   76POSM   D2B  782   5.244   5.872   5.458  0.1331  0.2648 -0.3156
   76POSM   C3B  783   5.314   6.062   5.179  0.1997 -0.1579  0.2537
   76POSM   C4B  784   5.262   6.109   4.752 -0.0084 -0.0133 -0.2487
   77CHOL   ROH  785   7.915  10.973   6.194  0.1283  0.1310  0.0234
   77CHOL    R1  786   8.051  11.178   6.056  0.0593  0.2301  0.0963
   77CHOL    R2  787   8.207  11.130   5.833  0.3871  0.3056  0.2926
   77CHOL    R3  788   8.048  11.319   5.720  0.2891  0.0716  0.0289
   77CHOL    R4  789   8.299  11.335   5.570  0.4041  0.2615  0.2652
   77CHOL    R5  790   8.197  11.500   5.669  0.1328  0.2050  0.0685
   77CHOL    C1  791   8.203  11.632   5.312  0.3220  0.0162  0.0016
   77CHOL    C2  792   8.467  11.876   5.184  0.3568  0.0668 -0.1611
   78CHOL   ROH  793  10.142  10.106   6.129  0.0147 -0.1145 -0.0942
   78CHOL    R1  794  10.215  10.010   5.873  0.0499 -0.0162 -0.1223
   78CHOL    R2  795  10.056  10.044   5.650 -0.0214 -0.1162 -0.0900
   78CHOL    R3  796  10.282  10.153   5.546 -0.1302  0.0902 -0.1129
   78CHOL    R4  797  10.118  10.085   5.313 -0.0225 -0.2086 -0.1011
   78CHOL    R5  798  10.325  10.025   5.348  0.0421  0.0425 -0.0451
   78CHOL    C1  799  10.366  10.211   5.018 -0.1252 -0.0685 -0.1291
   78CHOL    C2  800  10.558  10.241   4.730 -0.2868 -0.0197 -0.1105
   79CHOL   ROH  801   9.056  10.973   6.117  0.1003 -0.0453 -0.0794
   79CHOL    R1  802   9.059  11.113   5.871 -0.0091  0.0520 -0.0273
   79CHOL    R2  803   9.282  11.122   5.708 -0.0139  0.2875 -0.0268
   79CHOL    R3  804   9.108  11.030   5.520  0.0556  0.2221 -0.0588
   79CHOL    R4  805   9.308  11.181   5.368  0.0570  0.2479 -0.0281
   79CHOL    R5  806   9.092  11.208   5.361  0.0535  0.1961 -0.0866
   79CHOL    C1  807   9.160  11.129   4.994  0.1635  0.1635 -0.0588
   79CHOL    C2  808   9.272  11.306   4.721 -0.0325 -0.1454 -0.4412
   80POPE   NH3  809   7.896   4.938   6.318 -0.1981 -0.0902  0.3594
   80POPE   PO4  810   8.173   4.788   6.089 -0.0598 -0.0852  0.1740
   80POPE   GL1  811   8.415   4.735   5.663 -0.3094 -0.0571 -0.1921
   80POPE   GL2  812   8.714   4.853   5.664  0.1788 -0.3202  0.3377
   80POPE   C1A  813   8.624   4.532   5.313  0.1252  0.1513 -0.1933
   80POPE   D2A  814   8.807   4.487   4.943  0.0572 -0.0702 -0.3402
   80POPE   C3A  815   8.461   4.310   4.586 -0.0220 -0.2980  0.2729
   80POPE   C4A  816   8.394   4.131   4.070 -0.1851 -0.0416 -0.1600
   80POPE   C1B  817   9.072   4.727   5.380  0.1211  0.1819 -0.1183
   80POPE   C2B  818   9.263   4.868   4.992 -0.1610 -0.0892 -0.1777
   80POPE   C3B  819   9.514   5.165   4.722 -0.0208 -0.1604 -0.0990
   80POPE   C4B  820   9.880   5.366   4.612  0.2193 -0.2781 -0.0263
   81POPC   NC3  821   4.521   9.265   6.753 -0.3794 -0.0463 -0.1151
   81POPC   PO4  822   4.742   9.627   6.531  0.1407 -0.0950 -0.2037
   81POPC   GL1  823   4.525   9.488   6.177  0.1154  0.2085 -0.1300
   81POPC   GL2  824   4.282   9.605   6.030 -0.1838 -0.0450 -0.0691
   81POPC   C1A  825   4.529   9.129   5.940 -0.2960  0.1561  0.0106
   81POPC   D2A  826   4.480   9.077   5.485  0.2105 -0.2395  0.1482
   81POPC   C3A  827   4.334   9.373   5.224 -0.0540 -0.1074 -0.0112
   81POPC   C4A  828   4.212   9.216   4.877  0.1754 -0.1506  0.0959
   81POPC   C1B  829   4.393   9.619   5.651  0.1329 -0.1191  0.0365
   81POPC   C2B  830   4.455   9.915   5.203  0.0720 -0.1882  0.1812
   81POPC   C3B  831   4.660  10.074   4.866 -0.2843 -0.0648  0.2493
   81POPC   C4B  832   4.903   9.969   4.567 -0.1077 -0.2654  0.1166
   82POPC   NC3  833  11.185   7.760   6.906 -0.2433 -0.0265  0.0059
   82POPC   PO4  834  11.098   8.150   7.048  0.0539 -0.0355  0.2776
   82POPC   GL1  835  11.091   8.128   6.475 -0.0162  0.2196 -0.0284
   82POPC   GL2  836  10.656   8.160   6.359 -0.1046 -0.1063 -0.0564
   82POPC   C1A  837  11.219   7.896   6.082 -0.1471  0.1316  0.0433
   82POPC   D2A  838  11.377   7.903   5.675  0.1247  0.0459  0.0345
   82POPC   C3A  839  11.264   7.720   5.307 -0.0622 -0.2633  0.2022
   82POPC   C4A  840  11.106   7.645   4.869  0.0420  0.3632 -0.1127
   82POPC   C1B  841  10.800   8.233   5.899 -0.2499  0.2369  0.0910
   82POPC   C2B  842  11.018   8.200   5.484  0.0227 -0.1115 -0.2427
   82POPC   C3B  843  11.018   8.109   4.984 -0.0881  0.1230 -0.3065
   82POPC   C4B  844  11.353   8.225   4.740 -0.1383  0.3024  0.1332
   83CHOL   ROH  845   6.710  10.502   6.164 -0.1228  0.2507  0.0001
   83CHOL    R1  846   6.647  10.631   5.919 -0.0075  0.2721 -0.0198
   83CHOL    R2  847   6.816  10.813   5.799  0.1650  0.0973 -0.0531
   83CHOL    R3  848   6.791  10.648   5.585  0.0051  0.0832 -0.0237
   83CHOL    R4  849   6.757  10.917   5.475 -0.0313  0.0715 -0.0267
   83CHOL    R5  850   6.620  10.749   5.451 -0.0667  0.0900  0.0759
   83CHOL    C1  851   6.699  10.822   5.085 -0.2956  0.0433  0.0163
   83CHOL    C2  852   6.775  11.019   4.813  0.0788  0.0970 -0.1150
   84CHOL   ROH  853   5.243  10.826   6.262  0.0815  0.0809  0.0071
   84CHOL    R1  854   5.437  10.697   6.102  0.0774 -0.0837  0.1332
   84CHOL    R2  855   5.589  10.485   6.193 -0.1144 -0.1659  0.2544
   84CHOL    R3  856   5.492  10.362   5.971 -0.0798 -0.1492  0.2288
   84CHOL    R4  857   5.775  10.284   5.983 -0.0543 -0.0829  0.2266
   84CHOL    R5  858   5.672  10.375   5.813 -0.0736 -0.0748  0.2367
   84CHOL    C1  859   5.793  10.051   5.651  0.0132 -0.0189  0.1864
   84CHOL    C2  860   6.037  10.088   5.360  0.1364  0.2219 -0.4074
   85POPE   NH3  861   5.679   5.172   6.255  0.3508 -0.0616 -0.3435
   85POPE   PO4  862   5.224   5.019   6.412 -0.0648  0.2086  0.2569
   85POPE   GL1  863   5.151   5.130   6.052  0.2882 -0.0502 -0.0566
   85POPE   GL2  864   5.292   5.431   5.999 -0.1112 -0.2404 -0.1005
   85POPE   C1A  865   5.095   4.984   5.652  0.1415 -0.2879  0.1613
   85POPE   D2A  866   5.113   5.052   5.242  0.1298  0.0991  0.1393
   85POPE   C3A  867   5.187   4.904   4.925  0.0954  0.0010 -0.1923
   85POPE   C4A  868   5.073   4.739   4.585  0.0949  0.3578  0.1123
   85POPE   C1B  869   5.371   5.381   5.514 -0.0679 -0.1392 -0.2620
   85POPE   C2B  870   5.344   5.483   4.992  0.2299  0.1087 -0.1010
   85POPE   C3B  871   5.389   5.300   4.569  0.0336 -0.0550  0.1171
   85POPE   C4B  872   5.751   5.211   4.274 -0.0742  0.1721 -0.2575
   86POPC   NC3  873  10.349   5.677   6.857  0.0215  0.0195 -0.0057
   86POPC   PO4  874  10.884   5.546   6.750  0.1729 -0.1963 -0.0887
   86POPC   GL1  875  10.915   5.716   6.314 -0.1217 -0.0875 -0.1337
   86POPC   GL2  876  10.786   5.808   6.108  0.1238  0.2504 -0.1974
   86POPC   C1A  877  11.251   5.739   6.053  0.0746  0.0246  0.1836
   86POPC   D2A  878  11.490   5.714   5.632  0.2915 -0.1956 -0.0318
   86POPC   C3A  879  11.612   5.872   5.170  0.4040 -0.1134 -0.0612
   86POPC   C4A  880  11.549   6.090   4.789 -0.2963 -0.2226  0.1293
   86POPC   C1B  881  10.526   5.683   5.722 -0.0362 -0.2848 -0.0275
   86POPC   C2B  882  10.550   5.514   5.327 -0.1007  0.1795  0.0063
   86POPC   C3B  883  10.744   5.492   4.943  0.1116 -0.1634 -0.0175
   86POPC   C4B  884  10.770   5.434   4.615 -0.0675  0.0012  0.2391
   87POPE   NH3  885  11.261   5.253   6.550  0.0957  0.0002  0.0135
   87POPE   PO4  886  11.102   5.042   6.174  0.2294 -0.0218  0.0673
   87POPE   GL1  887  10.744   4.948   5.872 -0.3601  0.0250  0.0427
   87POPE   GL2  888  10.450   4.811   5.894  0.1286 -0.0164  0.4817
   87POPE   C1A  889  10.758   4.719   5.461  0.0235 -0.3153  0.1544
   87POPE   D2A  890  10.693   4.965   5.129 -0.3704 -0.1695  0.2087
   87POPE   C3A  891  10.842   4.931   4.702 -0.2060  0.1234 -0.0085
   87POPE   C4A  892  11.039   5.156   4.356  0.1516  0.0966 -0.0099
   87POPE   C1B  893  10.332   5.118   5.578  0.1258  0.1176  0.2816
   87POPE   C2B  894  10.236   5.140   5.130  0.0509 -0.1672 -0.3803
   87POPE   C3B  895  10.352   5.132   4.656  0.1613 -0.0263  0.3103
   87POPE   C4B  896  10.540   4.918   4.297 -0.1866 -0.3620 -0.3406
   88POPS   CNO  897   5.842  11.138   6.877  0.1137 -0.0409  0.1414
   88POPS   PO4  898   5.611  11.356   6.656  0.0307  0.1525 -0.0963
   88POPS   GL1  899   5.660  11.080   6.336 -0.1350  0.0891 -0.0584
   88POPS   GL2  900   5.922  10.875   6.330 -0.0743  0.0411 -0.3432
   88POPS   C1A  901   5.779  10.879   5.853 -0.1673 -0.0512  0.2680
   88POPS   D2A  902   5.771  10.711   5.435  0.1463  0.0699  0.1497
   88POPS   C3A  903   5.364  10.606   5.511 -0.1012 -0.5605 -0.1524
   88POPS   C4A  904   5.079  10.381   5.680  0.2131  0.0803  0.2960
   88POPS   C1B  905   6.203  10.579   6.070 -0.0738 -0.0132 -0.0107
   88POPS   C2B  906   6.163  10.519   5.688  0.1130 -0.0611 -0.2412
   88POPS   C3B  907   6.206  10.644   5.255 -0.0711  0.0315  0.3911
   88POPS   C4B  908   6.271  10.838   4.896 -0.4855  0.1905 -0.0698
   89POPE   NH3  909   7.248   3.734   6.739  0.1546  0.0330  0.1131
   89POPE   PO4  910   7.012   4.043   6.583  0.0573 -0.2000  0.4295
   89POPE   GL1  911   7.013   3.824   6.214 -0.0954  0.0420  0.0208
   89POPE   GL2  912   6.880   3.647   6.199 -0.0153  0.3918  0.3137
   89POPE   C1A  913   7.119   3.720   5.688 -0.1181  0.1979  0.2372
   89POPE   D2A  914   7.236   3.766   5.209 -0.1637  0.1615 -0.0568
   89POPE   C3A  915   7.044   3.484   4.969  0.0802 -0.0658  0.2258
   89POPE   C4A  916   7.209   3.102   4.597  0.0814  0.2400  0.1438
   89POPE   C1B  917   6.505   3.554   5.910  0.3593 -0.2472 -0.3602
   89POPE   C2B  918   6.243   3.663   5.687  0.0237 -0.1678 -0.2180
   89POPE   C3B  919   6.259   3.682   5.213  0.0676 -0.2084  0.3191
   89POPE   C4B  920   6.503   3.525   4.874  0.0020  0.0079  0.3524
   90CHOL   ROH  921  11.148   6.211   6.199  0.0779  0.1147  0.0082
   90CHOL    R1  922  11.267   6.307   5.961  0.1738 -0.0654 -0.0164
   90CHOL    R2  923  11.291   6.152   5.735 -0.2512 -0.0587 -0.0614
   90CHOL    R3  924  11.163   6.361   5.616  0.1291  0.2487  0.0408
   90CHOL    R4  925  11.298   6.221   5.396 -0.4295 -0.1510 -0.0871
   90CHOL    R5  926  11.314   6.433   5.445  0.1490 -0.1582 -0.1349
   90CHOL    C1  927  11.182   6.456   5.088 -0.1762  0.0837 -0.0060
   90CHOL    C2  928  10.957   6.547   4.869  0.1280  0.0099  0.0249
   91POSM   NC3  929   4.792  10.847   6.553  0.2154  0.1175 -0.0514
   91POSM   PO4  930   5.081  10.418   6.607 -0.0491 -0.0101 -0.1472
   91POSM   AM1  931   5.110  10.261   6.280 -0.4864 -0.4062  0.0018
   91POSM   AM2  932   4.865  10.080   6.241 -0.0394  0.3468  0.1435
   91POSM   T1A  933   5.263   9.933   5.858 -0.0560  0.1822 -0.1663
   91POSM   C2A  934   5.381  10.100   5.442  0.3079  0.0501  0.0862
   91POSM   C3A  935   5.609  10.330   5.200  0.0264 -0.2008  0.0975
   91POSM   C1B  936   4.790   9.883   5.816 -0.1349 -0.1107  0.1437
   91POSM   D2B  937   4.917  10.000   5.360  0.0487 -0.1864 -0.0825
   91POSM   C3B  938   5.006  10.363   5.164  0.2667  0.0275  0.0871
   91POSM   C4B  939   4.941  10.513   4.776 -0.0079 -0.4368 -0.2587
   92CHOL   ROH  940  10.134  10.523   5.920  0.0877 -0.0480 -0.2370
   92CHOL    R1  941  10.006  10.598   5.679  0.1427  0.1261 -0.2124
   92CHOL    R2  942  10.139  10.726   5.473  0.2786 -0.0494 -0.2350
   92CHOL    R3  943  10.041  10.520   5.325 -0.0262  0.0798 -0.2208
   92CHOL    R4  944  10.153  10.707   5.128  0.1325 -0.0325 -0.2425
   92CHOL    R5  945   9.951  10.625   5.130  0.0295  0.2112 -0.1789
   92CHOL    C1  946  10.070  10.502   4.789 -0.2387  0.0987 -0.2336
   92CHOL    C2  947   9.841  10.354   4.494 -0.0479  0.1178  0.2570
   93CHOL   ROH  948   4.473   6.658   6.313  0.1571  0.1016  0.0595
   93CHOL    R1  949   4.389   6.666   6.043  0.1499 -0.0994  0.0532
   93CHOL    R2  950   4.395   6.898   5.892 -0.2510 -0.1103  0.0069
   93CHOL    R3  951   4.540   6.745   5.721  0.0301  0.1047  0.0466
   93CHOL    R4  952   4.445   6.968   5.557 -0.1942 -0.0045  0.0374
   93CHOL    R5  953   4.420   6.756   5.514  0.1075 -0.0305 -0.0040
   93CHOL    C1  954   4.611   6.865   5.202  0.1028  0.2589  0.0923
   93CHOL    C2  955   4.425   7.068   5.032  0.2361 -0.1941 -0.1010
   94CHOL   ROH  956   7.311   4.116   5.910 -0.0839  0.1080 -0.0739
   94CHOL    R1  957   7.473   4.195   5.692 -0.2061  0.1091 -0.1644
   94CHOL    R2  958   7.723   4.089   5.646 -0.1119  0.3217 -0.1345
   94CHOL    R3  959   7.621   4.036   5.400 -0.1075  0.0412 -0.0797
   94CHOL    R4  960   7.906   3.970   5.378  0.0590  0.7007 -0.1926
   94CHOL    R5  961   7.792   4.104   5.248 -0.3225  0.4262 -0.1695
   94CHOL    C1  962   7.916   3.851   4.991  0.1627  0.6580 -0.1751
   94CHOL    C2  963   8.051   3.510   4.809 -0.2576  0.3500 -0.2509
   95POPS   CNO  964  10.037   8.809   6.990  0.1252 -0.1315  0.2870
   95POPS   PO4  965  10.006   8.923   6.548 -0.1830 -0.0872  0.0030
   95POPS   GL1  966  10.168   9.033   6.224 -0.1551 -0.1986 -0.1229
   95POPS   GL2  967  10.382   9.252   6.285 -0.0443  0.1820  0.1780
   95POPS   C1A  968  10.315   9.166   5.775 -0.2080  0.1991  0.3675
   95POPS   D2A  969  10.456   9.251   5.349  0.0203  0.0771 -0.0410
   95POPS   C3A  970  10.249   9.118   4.871 -0.3426 -0.1568  0.0821
   95POPS   C4A  971  10.001   8.869   4.812  0.2508  0.2189 -0.0645
   95POPS   C1B  972  10.668   9.152   6.100 -0.2863  0.0830 -0.0431
   95POPS   C2B  973  10.872   9.118   5.732 -0.2798 -0.3404  0.1704
   95POPS   C3B  974  10.970   9.146   5.275  0.1406  0.0182 -0.3459
   95POPS   C4B  975  11.267   9.062   4.956 -0.3948  0.0723  0.0236
   96CHOL   ROH  976   3.921   6.926   6.128 -0.1996  0.0486 -0.1028
   96CHOL    R1  977   3.878   7.096   5.906  0.0171  0.1260 -0.0874
   96CHOL    R2  978   4.079   7.159   5.726  0.1062 -0.1068 -0.0821
   96CHOL    R3  979   3.900   7.068   5.543 -0.0101  0.1295 -0.0887
   96CHOL    R4  980   4.105   7.204   5.385  0.2705 -0.3037 -0.0964
   96CHOL    R5  981   3.891   7.241   5.378  0.3365  0.0738 -0.1670
   96CHOL    C1  982   3.953   7.145   5.014  0.2570 -0.1965 -0.1110
   96CHOL    C2  983   3.876   7.099   4.630 -0.0903  0.1461 -0.2033
   97POSM   NC3  984  10.997   8.908   6.927 -0.2201 -0.0804  0.1775
   97POSM   PO4  985  11.250   9.280   6.846 -0.0990  0.2244 -0.1717
   97POSM   AM1  986  11.293   9.167   6.502 -0.0054  0.0101 -0.2164
   97POSM   AM2  987  11.732   9.090   6.375 -0.1622  0.0580  0.1942
   97POSM   T1A  988  11.317   9.059   6.101 -0.2829 -0.1572  0.3891
   97POSM   C2A  989  11.242   8.816   5.680 -0.0746 -0.0026  0.2373
   97POSM   C3A  990  11.189   8.622   5.309 -0.0850  0.4251 -0.1993
   97POSM   C1B  991  11.684   8.696   6.067  0.2259  0.1236  0.0645
   97POSM   D2B  992  11.858   8.661   5.638  0.0787  0.3118  0.1570
   97POSM   C3B  993  11.826   8.605   5.243 -0.0334  0.1541  0.1049
   97POSM   C4B  994  11.528   8.665   4.897 -0.2268 -0.0177  0.1812
   98POSM   NC3  995   6.294   4.479   6.703 -0.4946  0.2567  0.6233
   98POSM   PO4  996   6.327   4.000   6.692  0.2037  0.3083  0.0874
   98POSM   AM1  997   6.511   4.022   6.149 -0.1287 -0.1042  0.1094
   98POSM   AM2  998   6.815   4.295   6.120 -0.4665 -0.1714  0.0885
   98POSM   T1A  999   6.534   4.186   5.756  0.0594 -0.0367 -0.2095
   98POSM   C2A 1000   6.320   4.149   5.426 -0.1648  0.0827  0.2256
   98POSM   C3A 1001   6.330   4.194   4.882 -0.5827 -0.0418  0.1080
   98POSM   C1B 1002   7.019   4.465   5.653 -0.0441 -0.1714  0.0281
   98POSM   D2B 1003   6.894   4.194   5.353 -0.0251 -0.0859 -0.0100
   98POSM   C3B 1004   6.674   3.800   5.453 -0.3663  0.6083 -0.2012
   98POSM   C4B 1005   6.648   3.439   5.333  0.1363  0.2274 -0.0783
   99CHOL   ROH 1006   4.663   5.424   6.117 -0.0370 -0.2131  0.0958
   99CHOL    R1 1007   4.676   5.495   5.844 -0.1936 -0.2305  0.0823
   99CHOL    R2 1008   4.912   5.487   5.700 -0.1923  0.1520  0.0571
   99CHOL    R3 1009   4.766   5.330   5.532  0.0528 -0.1292  0.0975
   99CHOL    R4 1010   4.935   5.492   5.355 -0.1879  0.0860  0.0558
   99CHOL    R5 1011   4.718   5.472   5.345 -0.1634 -0.2549  0.0538
   99CHOL    C1 1012   4.811   5.348   4.997  0.0448 -0.2165  0.0930
   99CHOL    C2 1013   4.908   5.213   4.654 -0.0189  0.0905  0.2590
  100POPS   CNO 1014  10.591   9.765   6.830  0.0556  0.1238 -0.1096
  100POPS   PO4 1015  10.285   9.696   6.442  0.0641 -0.3841 -0.0887
  100POPS   GL1 1016  10.602   9.707   6.149 -0.1188  0.1801 -0.3824
  100POPS   GL2 1017  10.682  10.128   6.080  0.2691 -0.0970 -0.1677
  100POPS   C1A 1018  10.625   9.638   5.681  0.0149 -0.2789 -0.0281
  100POPS   D2A 1019  10.693   9.650   5.170 -0.2049  0.2952  0.1643
  100POPS   C3A 1020  10.662   9.351   4.789 -0.0680 -0.0290 -0.1825
  100POPS   C4A 1021  10.935   9.107   4.558  0.1781  0.0978  0.0805
  100POPS   C1B 1022  10.869  10.094   5.642  0.1590  0.3416 -0.3323
  100POPS   C2B 1023  10.858  10.093   5.142  0.0485  0.2636  0.1265
  100POPS   C3B 1024  10.778   9.826   4.687  0.1074 -0.2701 -0.0064
  100POPS   C4B 1025  11.036   9.593   4.393 -0.0767 -0.1302  0.0566
  101CHOL   ROH 1026  10.089   4.394   6.244  0.2360  0.4131  0.0152
  101CHOL    R1 1027   9.990   4.358   5.982  0.1461  0.1459  0.0819
  101CHOL    R2 1028   9.931   4.571   5.815  0.0391 -0.0212 -0.0967
  101CHOL    R3 1029  10.099   4.441   5.645  0.0048 -0.1434 -0.0389
  101CHOL    R4 1030  10.032   4.691   5.507  0.2743 -0.0669 -0.0393
  101CHOL    R5 1031  10.012   4.489   5.427  0.1383 -0.0428 -0.0728
  101CHOL    C1 1032  10.248   4.639   5.168  0.3790 -0.2081  0.0485
  101CHOL    C2 1033  10.237   4.609   4.761 -0.2698 -0.3067  0.1395
  102POPS   CNO 1034   7.532   3.947   6.373 -0.0588 -0.0806 -0.1389
  102POPS   PO4 1035   7.921   4.002   6.530  0.0946  0.0649 -0.1628
  102POPS   GL1 1036   7.984   4.055   6.118 -0.0116  0.2202  0.0198
  102POPS   GL2 1037   8.128   4.308   5.937 -0.0766  0.1971  0.1010
  102POPS   C1A 1038   8.116   3.735   5.815 -0.1030 -0.2281  0.3073
  102POPS   D2A 1039   8.161   3.549   5.376 -0.4583  0.0465  0.1864
  102POPS   C3A 1040   8.427   3.800   4.943 -0.3245 -0.0565 -0.0163
  102POPS   C4A 1041   8.813   3.978   4.920 -0.1660 -0.1735  0.1482
  102POPS   C1B 1042   8.263   4.227   5.520  0.0803 -0.0673  0.2041
  102POPS   C2B 1043   8.276   4.267   5.068  0.0370  0.0554 -0.2283
  102POPS   C3B 1044   7.965   4.334   4.827  0.0468 -0.1378  0.0646
  102POPS   C4B 1045   7.653   4.579   4.929 -0.2712 -0.0289 -0.2403
  103CHOL   ROH 1046   5.720  11.572   6.159  0.0788 -0.0553 -0.0528
  103CHOL    R1 1047   5.707  11.390   5.943  0.2151 -0.1586  0.0223
  103CHOL    R2 1048   5.606  11.459   5.695 -0.0996 -0.4108  0.0631
  103CHOL    R3 1049   5.846  11.367   5.607 -0.0018 -0.0363 -0.0733
  103CHOL    R4 1050   5.685  11.401   5.364 -0.1623 -0.2733  0.0242
  103CHOL    R5 1051   5.791  11.220   5.426  0.1448 -0.1084 -0.0493
  103CHOL    C1 1052   5.957  11.281   5.088 -0.1070  0.1584 -0.1266
  103CHOL    C2 1053   5.771  11.200   4.777  0.2421  0.2362 -0.1347
  104POSM   NC3 1054   7.657  10.740   7.192  0.0511 -0.1477  0.0435
  104POSM   PO4 1055   7.909  10.939   6.857 -0.0517 -0.1539  0.1026
  104POSM   AM1 1056   7.656  11.160   6.596  0.2117 -0.3613  0.3671
  104POSM   AM2 1057   7.232  11.275   6.639  0.1012  0.0145  0.1728
  104POSM   T1A 1058   7.657  11.405   6.287  0.1257 -0.1458  0.2085
  104POSM   C2A 1059   7.533  11.507   5.846 -0.0060  0.2069 -0.0187
  104POSM   C3A 1060   7.738  11.730   5.488 -0.3653  0.2410 -0.2017
  104POSM   C1B 1061   7.120  11.389   6.256 -0.0544  0.1217  0.2033
  104POSM   D2B 1062   7.056  11.252   5.813 -0.1866  0.1014 -0.4716
  104POSM   C3B 1063   7.182  11.245   5.382 -0.3176  0.2683  0.2873
  104POSM   C4B 1064   7.196  11.284   4.946 -0.2074  0.1461  0.0933
  105POPS   CNO 1065  11.060   6.466   6.816 -0.0528 -0.0828 -0.3982
  105POPS   PO4 1066  11.464   6.399   6.569  0.0416 -0.0142 -0.0584
  105POPS   GL1 1067  11.532   6.650   6.189 -0.1196  0.1137 -0.1563
  105POPS   GL2 1068  11.262   6.795   6.074 -0.0200  0.3185  0.1854
  105POPS   C1A 1069  11.701   6.475   5.851 -0.1863 -0.2336  0.1905
  105POPS   D2A 1070  11.827   6.187   5.603  0.1459 -0.3686  0.1707
  105POPS   C3A 1071  11.772   6.356   5.328  0.0597 -0.1626 -0.0808
  105POPS   C4A 1072  11.768   6.524   4.963  0.3955 -0.0105 -0.0308
  105POPS   C1B 1073  11.301   6.878   5.690 -0.1071 -0.1469 -0.1680
  105POPS   C2B 1074  11.379   6.870   5.171 -0.0307 -0.1428  0.1847
  105POPS   C3B 1075  11.410   6.835   4.869  0.1939  0.0078 -0.3578
  105POPS   C4B 1076  11.668   6.878   4.551  0.0941  0.0530  0.0622
  106CHOL   ROH 1077   4.994   9.549   6.084  0.0113 -0.1643  0.0378
  106CHOL    R1 1078   5.025   9.423   5.832  0.2025 -0.1241  0.0407
  106CHOL    R2 1079   4.844   9.456   5.625  0.1832 -0.3524  0.0209
  106CHOL    R3 1080   5.066   9.529   5.486  0.1089 -0.0680  0.0450
  106CHOL    R4 1081   4.855   9.510   5.284  0.2028 -0.6205 -0.0229
  106CHOL    R5 1082   5.049   9.410   5.280  0.3937 -0.2816  0.1346
  106CHOL    C1 1083   5.070   9.609   4.955  0.1446 -0.5097 -0.0258
  106CHOL    C2 1084   4.948   9.462   4.620  0.3447 -0.1753  0.4969
  107POPC   NC3 1085   9.816  10.930   6.735 -0.2347 -0.1274  0.0524
  107POPC   PO4 1086   9.591  10.985   6.388  0.0239 -0.0422 -0.0008
  107POPC   GL1 1087   9.457  11.264   6.151 -0.0208  0.0293  0.0576
  107POPC   GL2 1088   9.692  11.520   6.137 -0.2992 -0.0522  0.1023
  107POPC   C1A 1089   9.108  11.565   6.153  0.1661 -0.3018  0.0453
  107POPC   D2A 1090   8.707  11.848   6.166 -0.1667  0.2230  0.1721
  107POPC   C3A 1091   8.247  11.626   6.154  0.3752  0.3439  0.3423
  107POPC   C4A 1092   7.924  11.797   6.023  0.2487  0.0199  0.0329
  107POPC   C1B 1093   9.497  11.550   5.714  0.1290  0.1194 -0.2850
  107POPC   C2B 1094   9.566  11.608   5.283 -0.0781 -0.1960  0.0774
  107POPC   C3B 1095   9.494  11.715   4.795  0.3218  0.0847 -0.0486
  107POPC   C4B 1096   9.555  11.763   4.279  0.1569 -0.0641 -0.2471
  108POPE   NH3 1097   3.927   7.105   6.657  0.0641 -0.1981 -0.2833
  108POPE   PO4 1098   4.333   7.036   6.681 -0.0128 -0.2513  0.3424
  108POPE   GL1 1099   4.304   7.203   6.287 -0.2751  0.0568 -0.0270
  108POPE   GL2 1100   4.032   7.443   6.252 -0.1408 -0.2883 -0.2367
  108POPE   C1A 1101   4.454   7.408   6.028 -0.2870  0.2638  0.3957
  108POPE   D2A 1102   4.563   7.392   5.763  0.0550 -0.0908  0.0848
  108POPE   C3A 1103   4.525   7.524   5.357  0.1691  0.0412 -0.0995
  108POPE   C4A 1104   4.175   7.677   5.030 -0.1961 -0.1006 -0.4406
  108POPE   C1B 1105   4.085   7.719   5.885 -0.0968 -0.1041 -0.1371
  108POPE   C2B 1106   3.966   7.744   5.499 -0.0386 -0.0401  0.2099
  108POPE   C3B 1107   3.740   8.083   5.276  0.2296 -0.0423  0.0318
  108POPE   C4B 1108   3.255   8.038   5.110 -0.1759 -0.3337 -0.0457
  109POPC   NC3 1109  12.535   6.942   6.549  0.2190 -0.2077  0.3381
  109POPC   PO4 1110  12.161   7.073   6.654  0.4111 -0.1323 -0.0317
  109POPC   GL1 1111  12.172   7.219   6.258  0.0203 -0.1579  0.3409
  109POPC   GL2 1112  12.062   7.412   6.177 -0.0754 -0.1340 -0.1788
  109POPC   C1A 1113  12.328   7.164   5.849 -0.1544 -0.0340 -0.1707
  109POPC   D2A 1114  12.186   7.188   5.482  0.0543 -0.2273 -0.1642
  109POPC   C3A 1115  12.326   7.122   5.054  0.1927 -0.0454  0.0460
  109POPC   C4A 1116  12.601   7.175   4.728 -0.0901  0.3011 -0.0814
  109POPC   C1B 1117  11.877   7.656   5.792 -0.2261 -0.0822  0.2317
  109POPC   C2B 1118  11.814   7.823   5.379  0.1377 -0.3120 -0.1418
  109POPC   C3B 1119  11.607   7.812   4.884  0.1539  0.1569 -0.1943
  109POPC   C4B 1120  11.531   7.849   4.393  0.1798  0.0121  0.2004
  110POPC   NC3 1121   6.621  10.672   6.961 -0.3662 -0.0577 -0.0649
  110POPC   PO4 1122   6.881  10.724   6.657  0.0891  0.0423  0.1125
  110POPC   GL1 1123   6.876  10.957   6.283 -0.1020 -0.0140  0.2349
  110POPC   GL2 1124   7.227  10.799   6.293 -0.1144 -0.0803  0.4497
  110POPC   C1A 1125   6.619  11.194   6.089 -0.1477 -0.2804  0.0896
  110POPC   D2A 1126   6.542  11.524   5.790  0.2235 -0.4482  0.0059
  110POPC   C3A 1127   6.826  11.519   5.377  0.1977  0.0812 -0.1268
  110POPC   C4A 1128   6.678  11.623   5.048  0.1528 -0.0373  0.1644
  110POPC   C1B 1129   7.430  11.004   6.040 -0.1237  0.2528 -0.0205
  110POPC   C2B 1130   7.665  10.964   5.725 -0.1315  0.0787  0.2137
  110POPC   C3B 1131   7.722  11.141   5.369  0.0638 -0.1383 -0.2311
  110POPC   C4B 1132   7.724  11.346   5.025 -0.1638 -0.1787 -0.3703
  111POPC   NC3 1133   4.341   4.286   6.387  0.0188 -0.0504 -0.0854
  111POPC   PO4 1134   4.559   4.619   6.571  0.0798  0.2443 -0.2936
  111POPC   GL1 1135   4.683   4.642   6.159 -0.0567  0.1166 -0.2237
  111POPC   GL2 1136   4.992   4.672   6.050  0.0210 -0.0342  0.0454
  111POPC   C1A 1137   4.621   4.959   5.873 -0.3165 -0.1177  0.3256
  111POPC   D2A 1138   4.235   5.204   5.744 -0.1880  0.0512  0.0670
  111POPC   C3A 1139   4.295   5.199   5.283 -0.0438 -0.0704 -0.0182
  111POPC   C4A 1140   4.224   5.195   4.826  0.1211 -0.1848  0.0785
  111POPC   C1B 1141   4.807   4.565   5.647  0.2367  0.0086  0.0670
  111POPC   C2B 1142   5.038   4.547   5.283  0.0827 -0.2026 -0.3063
  111POPC   C3B 1143   4.804   4.399   4.910  0.1370  0.1360 -0.0732
  111POPC   C4B 1144   4.622   4.048   4.635 -0.1543  0.3122  0.1717
  112POSM   NC3 1145   5.616   4.680   6.629  0.0559  0.1041  0.1961
  112POSM   PO4 1146   5.998   4.809   6.491 -0.3147 -0.0603 -0.0696
  112POSM   AM1 1147   5.749   4.698   6.105 -0.1459 -0.0751 -0.1316
  112POSM   AM2 1148   5.447   4.550   6.182  0.1414 -0.3296  0.1022
  112POSM   T1A 1149   5.623   4.913   5.858 -0.0239  0.2089  0.1219
  112POSM   C2A 1150   5.609   4.946   5.421  0.0243 -0.0946 -0.1776
  112POSM   C3A 1151   5.620   5.029   5.072 -0.0161 -0.2831  0.1398
  112POSM   C1B 1152   5.359   4.519   5.726  0.0713 -0.0135  0.1261
  112POSM   D2B 1153   5.565   4.442   5.319  0.0433  0.0073 -0.3809
  112POSM   C3B 1154   5.381   4.473   4.914 -0.1173  0.0543  0.0719
  112POSM   C4B 1155   5.240   4.114   4.748  0.0457  0.0978 -0.2153
  113POPE   NH3 1156  10.061  11.264   6.355 -0.0089  0.1577  0.1725
  113POPE   PO4 1157  10.192  10.874   6.406 -0.1914 -0.0522 -0.3388
  113POPE   GL1 1158   9.913  10.984   5.988 -0.0631  0.1993 -0.1803
  113POPE   GL2 1159   9.637  10.762   5.970 -0.1138  0.1417 -0.0953
  113POPE   C1A 1160   9.769  11.099   5.646  0.2353 -0.2798  0.0856
  113POPE   D2A 1161   9.827  11.083   5.279 -0.1725  0.1148 -0.3005
  113POPE   C3A 1162   9.694  11.261   4.935 -0.1098  0.1751  0.1617
  113POPE   C4A 1163   9.752  11.287   4.481  0.1103  0.0291  0.0759
  113POPE   C1B 1164   9.479  10.691   5.499 -0.0441  0.0005 -0.0968
  113POPE   C2B 1165   9.490  10.782   5.088 -0.0943  0.0037 -0.0206
  113POPE   C3B 1166   9.699  10.801   4.716  0.1687  0.2048  0.1418
  113POPE   C4B 1167   9.568  10.836   4.335 -0.2983 -0.5186  0.1696
  114CHOL   ROH 1168  10.629  10.644   6.133 -0.0089 -0.0362  0.1012
  114CHOL    R1 1169  10.716  10.557   5.878 -0.1491 -0.0574  0.0595
  114CHOL    R2 1170  10.541  10.477   5.681 -0.2739  0.2022  0.0629
  114CHOL    R3 1171  10.673  10.663   5.533 -0.0853  0.0996  0.0990
  114CHOL    R4 1172  10.534  10.496   5.336 -0.3552  0.3446  0.0713
  114CHOL    R5 1173  10.747  10.543   5.339 -0.2907  0.0800  0.0283
  114CHOL    C1 1174  10.654  10.681   4.996 -0.2254  0.3312  0.1101
  114CHOL    C2 1175  10.486  10.812   4.653  0.3441 -0.0946 -0.3680
  115POPC   NC3 1176   8.444   4.119   6.279  0.0964 -0.1612 -0.0510
  115POPC   PO4 1177   8.800   4.282   6.465 -0.3189 -0.0394 -0.0625
  115POPC   GL1 1178   8.935   4.180   6.103  0.1234  0.0600  0.1116
  115POPC   GL2 1179   8.756   4.283   5.738  0.1154 -0.3356 -0.1619
  115POPC   C1A 1180   9.067   3.905   5.739 -0.5044 -0.1101 -0.1716
  115POPC   D2A 1181   9.209   3.596   5.532 -0.2975 -0.0429  0.0548
  115POPC   C3A 1182   9.593   3.766   5.368 -0.1112 -0.0506 -0.0342
  115POPC   C4A 1183   9.891   3.780   4.970 -0.2641  0.1707 -0.0403
  115POPC   C1B 1184   9.033   4.238   5.388  0.1042  0.1599 -0.1163
  115POPC   C2B 1185   9.243   3.971   5.155 -0.0577 -0.0846 -0.3092
  115POPC   C3B 1186   9.472   3.916   4.776 -0.2659 -0.0519  0.0371
  115POPC   C4B 1187   9.562   4.087   4.440  0.4046 -0.0138 -0.1402
  116POSM   NC3 1188   3.699   9.488   6.973 -0.1484  0.3344  0.0198
  116POSM   PO4 1189   3.938   9.120   7.053  0.0921 -0.3981 -0.1356
  116POSM   AM1 1190   4.079   8.885   6.604 -0.3198 -0.4479  0.0296
  116POSM   AM2 1191   4.226   8.980   6.448 -0.2150 -0.0486 -0.0301
  116POSM   T1A 1192   3.775   8.668   6.432  0.2956  0.0649  0.0391
  116POSM   C2A 1193   3.601   8.307   6.198 -0.2609  0.0329 -0.0430
  116POSM   C3A 1194   3.817   7.908   6.232 -0.1563 -0.0221  0.0964
  116POSM   C1B 1195   4.027   9.034   6.093  0.1163  0.1158  0.0767
  116POSM   D2B 1196   3.989   9.029   5.671 -0.2481 -0.2136 -0.0015
  116POSM   C3B 1197   3.935   9.368   5.477 -0.3060  0.2663 -0.1886
  116POSM   C4B 1198   3.813   9.460   5.113 -0.0938  0.0334  0.1240
  117POPC   NC3 1199  11.883   6.645   6.736  0.1146  0.0627  0.0263
  117POPC   PO4 1200  11.654   6.927   6.606 -0.0801 -0.3381 -0.0609
  117POPC   GL1 1201  11.633   7.172   6.251 -0.0678 -0.0492 -0.0197
  117POPC   GL2 1202  11.553   7.422   6.109 -0.1351 -0.1157  0.0104
  117POPC   C1A 1203  11.789   7.090   5.848 -0.1512  0.0207  0.3284
  117POPC   D2A 1204  11.800   6.881   5.380  0.3464 -0.3326  0.0778
  117POPC   C3A 1205  11.883   7.014   4.947  0.0526 -0.0093  0.2691
  117POPC   C4A 1206  12.066   7.130   4.601  0.1452 -0.0297 -0.2208
  117POPC   C1B 1207  11.374   7.371   5.790 -0.1901  0.1719 -0.1119
  117POPC   C2B 1208  11.564   7.303   5.335  0.1412  0.2103 -0.2058
  117POPC   C3B 1209  11.947   7.441   5.167  0.1925  0.1821 -0.0651
  117POPC   C4B 1210  12.044   7.621   4.792  0.2271 -0.1246 -0.1672
  118POPC   NC3 1211   6.583  12.162   6.812  0.0600 -0.2032 -0.0215
  118POPC   PO4 1212   6.263  11.895   6.570 -0.0475  0.0121 -0.1519
  118POPC   GL1 1213   6.214  11.615   6.205  0.5176  0.0648  0.3170
  118POPC   GL2 1214   6.139  11.330   6.465 -0.0143  0.0203 -0.0491
  118POPC   C1A 1215   6.072  11.769   5.784  0.2298  0.0778  0.0376
  118POPC   D2A 1216   6.208  11.666   5.374 -0.0210 -0.0251  0.1976
  118POPC   C3A 1217   6.082  11.792   4.963 -0.2155 -0.0735  0.0829
  118POPC   C4A 1218   6.186  11.747   4.612  0.3104 -0.1178 -0.0331
  118POPC   C1B 1219   6.156  11.199   5.978  0.1080  0.0167 -0.1797
  118POPC   C2B 1220   6.291  11.159   5.556 -0.2200  0.0237  0.2275
  118POPC   C3B 1221   6.411  11.264   5.219  0.3710  0.0455  0.1725
  118POPC   C4B 1222   6.394  11.293   4.788  0.4222 -0.0330 -0.3561
  119CHOL   ROH 1223  11.005   4.507   5.976  0.2059  0.1392 -0.0039
  119CHOL    R1 1224  11.110   4.359   5.760  0.1358  0.1351 -0.0371
  119CHOL    R2 1225  10.965   4.162   5.629  0.1329  0.0455  0.0889
  119CHOL    R3 1226  11.027   4.309   5.409 -0.0591  0.0305  0.0243
  119CHOL    R4 1227  11.059   4.030   5.324  0.0034  0.0402  0.0515
  119CHOL    R5 1228  11.207   4.189   5.306 -0.0752  0.0924 -0.0665
  119CHOL    C1 1229  11.172   4.091   4.939 -0.2523  0.0230 -0.0309
  119CHOL    C2 1230  11.021   4.031   4.520  0.4145  0.1189  0.1654
  120POPE   NH3 1231   5.221  11.615   6.615  0.2085 -0.0220 -0.0331
  120POPE   PO4 1232   4.777  11.333   6.697 -0.3042 -0.1388 -0.2184
  120POPE   GL1 1233   4.866  11.205   6.199  0.2810 -0.0573 -0.1213
  120POPE   GL2 1234   5.232  11.303   6.160 -0.1939 -0.1257 -0.3733
  120POPE   C1A 1235   4.908  11.327   5.759  0.0468 -0.0123 -0.0043
  120POPE   D2A 1236   4.829  11.339   5.324  0.0718  0.2251  0.3511
  120POPE   C3A 1237   4.611  11.234   5.038  0.1663  0.2574 -0.2792
  120POPE   C4A 1238   4.645  11.045   4.685 -0.0464 -0.2728  0.1908
  120POPE   C1B 1239   5.321  11.069   5.782  0.1340  0.3284 -0.1720
  120POPE   C2B 1240   5.294  11.128   5.422  0.2157 -0.2501 -0.0774
  120POPE   C3B 1241   5.325  11.309   4.993 -0.6307  0.2858 -0.1572
  120POPE   C4B 1242   5.426  11.481   4.598 -0.2051 -0.2960 -0.1019
  121CHOL   ROH 1243  10.909   5.409   5.780 -0.3683 -0.0102 -0.2088
  121CHOL    R1 1244  11.096   5.351   5.576 -0.1636  0.0418 -0.0400
  121CHOL    R2 1245  11.019   5.275   5.321  0.0906 -0.1030 -0.0787
  121CHOL    R3 1246  11.177   5.484   5.247  0.0073 -0.0205 -0.0244
  121CHOL    R4 1247  11.185   5.300   5.019  0.1807 -0.0152 -0.0222
  121CHOL    R5 1248  11.356   5.383   5.125  0.1016  0.0735  0.0363
  121CHOL    C1 1249  11.430   5.510   4.773  0.1549  0.1133  0.0616
  121CHOL    C2 1250  11.730   5.524   4.497 -0.1492  0.0456  0.2278
  122CHOL   ROH 1251   4.363  11.184   5.891 -0.4782 -0.3280  0.0494
  122CHOL    R1 1252   4.411  11.321   5.648 -0.1929 -0.1376  0.2078
  122CHOL    R2 1253   4.299  11.242   5.408  0.1537 -0.0023 -0.0045
  122CHOL    R3 1254   4.211  11.500   5.402  0.0796 -0.0253  0.0620
  122CHOL    R4 1255   4.131  11.388   5.143  0.2887  0.0714 -0.0512
  122CHOL    R5 1256   4.246  11.569   5.175  0.2138  0.0938  0.1167
  122CHOL    C1 1257   3.950  11.714   4.984  0.2978  0.0928 -0.0158
  122CHOL    C2 1258   3.669  11.758   4.875 -0.2326  0.2280  0.1192
  123POSM   NC3 1259   5.874   2.665   7.302  0.4089 -0.0721 -0.0216
  123POSM   PO4 1260   5.694   2.720   6.779 -0.0777  0.0905 -0.3559
  123POSM   AM1 1261   5.980   3.024   6.492 -0.0977 -0.0469 -0.2222
  123POSM   AM2 1262   6.244   2.945   6.531  0.2098 -0.2257  0.1256
  123POSM   T1A 1263   6.078   3.200   6.029  0.1385  0.0726 -0.0974
  123POSM   C2A 1264   6.249   3.198   5.581  0.1079 -0.0841  0.1444
  123POSM   C3A 1265   6.279   3.025   5.114 -0.0921 -0.0793 -0.0573
  123POSM   C1B 1266   6.447   2.813   6.153 -0.0475 -0.0154 -0.2632
  123POSM   D2B 1267   6.639   2.715   5.773  0.0335 -0.0090  0.0665
  123POSM   C3B 1268   6.725   2.966   5.478  0.0519  0.3564  0.0960
  123POSM   C4B 1269   6.895   3.036   5.066 -0.1624 -0.3610  0.0681
  124POPE   NH3 1270   4.858   4.109   6.632  0.1012  0.2595 -0.1590
  124POPE   PO4 1271   4.806   4.174   6.287  0.3354  0.2283  0.1885
  124POPE   GL1 1272   4.664   4.178   5.943  0.0300 -0.2460 -0.0283
  124POPE   GL2 1273   4.562   3.878   5.954 -0.2494  0.2062 -0.1870
  124POPE   C1A 1274   4.442   4.279   5.560 -0.1874  0.2442 -0.1682
  124POPE   D2A 1275   4.321   4.313   5.000  0.2695 -0.5056  0.1150
  124POPE   C3A 1276   4.233   4.593   4.721 -0.1510 -0.0968  0.0141
  124POPE   C4A 1277   4.618   4.577   4.515 -0.0601 -0.4484 -0.2113
  124POPE   C1B 1278   4.472   3.778   5.527  0.2614 -0.2707  0.1141
  124POPE   C2B 1279   4.542   3.643   5.063  0.1456  0.4898  0.0372
  124POPE   C3B 1280   4.561   3.470   4.625  0.2530  0.0469 -0.2201
  124POPE   C4B 1281   4.441   3.041   4.430 -0.2094  0.0029 -0.2678
  125POSM   NC3 1282   4.880   5.733   6.702 -0.0379  0.1013 -0.0167
  125POSM   PO4 1283   4.530   5.748   6.463  0.3025 -0.2236 -0.1415
  125POSM   AM1 1284   4.599   5.961   6.162 -0.3885 -0.0815  0.1013
  125POSM   AM2 1285   4.397   6.141   6.082 -0.2453  0.1527  0.1430
  125POSM   T1A 1286   4.775   5.976   5.761 -0.0054  0.1383 -0.2943
  125POSM   C2A 1287   4.770   5.990   5.376 -0.1660 -0.2526  0.2838
  125POSM   C3A 1288   4.834   5.865   4.970  0.2899  0.1003  0.1513
  125POSM   C1B 1289   4.398   6.237   5.667 -0.0006 -0.2384 -0.0383
  125POSM   D2B 1290   4.397   6.329   5.257  0.2767 -0.0602  0.0582
  125POSM   C3B 1291   4.424   6.140   4.910 -0.3647  0.0028  0.1766
  125POSM   C4B 1292   4.707   6.042   4.519 -0.0432  0.0832  0.1752
  126CHOL   ROH 1293   3.982   6.482   6.317 -0.0501  0.5200  0.1486
  126CHOL    R1 1294   3.987   6.454   6.035  0.2234  0.3375  0.1636
  126CHOL    R2 1295   3.784   6.549   5.873  0.0678 -0.2992 -0.0524
  126CHOL    R3 1296   3.988   6.677   5.747 -0.1638  0.1623  0.0249
  126CHOL    R4 1297   3.810   6.594   5.531  0.2073 -0.4352 -0.0598
  126CHOL    R5 1298   4.023   6.552   5.546  0.3126  0.1266  0.1245
  126CHOL    C1 1299   4.016   6.741   5.214  0.0710 -0.0811  0.0086
  126CHOL    C2 1300   4.130   6.535   4.878 -0.4598 -0.2107 -0.0552
  127CHOL   ROH 1301   6.269   4.542   6.150  0.0915 -0.0211 -0.0790
  127CHOL    R1 1302   6.126   4.408   5.945  0.0791 -0.0761 -0.0343
  127CHOL    R2 1303   6.058   4.141   5.961 -0.0296 -0.0394  0.0994
  127CHOL    R3 1304   5.807   4.234   5.916  0.0151  0.0338 -0.0033
  127CHOL    R4 1305   5.822   3.982   5.766 -0.0481 -0.0575  0.1359
  127CHOL    R5 1306   5.764   4.177   5.687  0.0429 -0.0751  0.0163
  127CHOL    C1 1307   5.448   3.977   5.610 -0.0169  0.0007  0.0607
  127CHOL    C2 1308   5.381   3.944   5.243  0.1850 -0.0159 -0.1442
  128POPC   NC3 1309  10.877   3.802   6.896 -0.1214 -0.2539  0.1771
  128POPC   PO4 1310  10.853   4.137   6.560  0.1660 -0.0109  0.3386
  128POPC   GL1 1311  10.475   4.063   6.271  0.0084 -0.1278  0.0482
  128POPC   GL2 1312  10.661   3.938   5.970  0.0595 -0.2424 -0.1917
  128POPC   C1A 1313  10.185   3.941   5.889 -0.0400  0.1367  0.0030
  128POPC   D2A 1314  10.126   3.961   5.394 -0.1061  0.0649 -0.0432
  128POPC   C3A 1315  10.179   4.172   5.045 -0.1480 -0.3637 -0.0599
  128POPC   C4A 1316   9.985   4.195   4.646  0.1678  0.2131 -0.0684
  128POPC   C1B 1317  10.564   4.353   5.819 -0.0288 -0.0225  0.4537
  128POPC   C2B 1318  10.524   4.290   5.373  0.1093  0.3076 -0.1187
  128POPC   C3B 1319  10.679   4.435   4.929 -0.0989 -0.2502 -0.0702
  128POPC   C4B 1320  10.700   4.475   4.485  0.0640 -0.0188 -0.0036
  129POSM   NC3 1321  11.196   5.975   6.673 -0.0763 -0.1832 -0.3588
  129POSM   PO4 1322  11.521   5.642   6.635 -0.2605  0.1315 -0.1258
  129POSM   AM1 1323  11.636   5.467   6.307  0.2530  0.1707 -0.0768
  129POSM   AM2 1324  11.949   5.617   6.393  0.0298 -0.0462 -0.0776
  129POSM   T1A 1325  11.554   5.303   5.931  0.2412 -0.1633  0.2119
  129POSM   C2A 1326  11.597   5.243   5.530  0.1679  0.0739  0.0137
  129POSM   C3A 1327  11.835   5.283   5.220 -0.2649  0.1746  0.0103
  129POSM   C1B 1328  11.875   5.753   5.943 -0.0039  0.0107  0.0774
  129POSM   D2B 1329  12.014   5.622   5.538 -0.0429  0.2117  0.0228
  129POSM   C3B 1330  12.112   5.921   5.346 -0.0534 -0.0003 -0.1618
  129POSM   C4B 1331  12.085   6.128   4.948 -0.0856 -0.3149  0.1553
  130CHOL   ROH 1332   5.050  11.790   6.203 -0.0664 -0.1852 -0.0016
  130CHOL    R1 1333   5.133  11.857   5.941  0.3379 -0.2562  0.1006
  130CHOL    R2 1334   5.246  11.673   5.769 -0.2027 -0.5433  0.0252
  130CHOL    R3 1335   5.047  11.756   5.602  0.1600  0.3110 -0.0354
  130CHOL    R4 1336   5.249  11.637   5.425 -0.2403 -0.5232  0.0235
  130CHOL    R5 1337   5.163  11.836   5.408  0.5773 -0.1306  0.0109
  130CHOL    C1 1338   5.065  11.692   5.069  0.0784  0.2905 -0.0344
  130CHOL    C2 1339   4.944  11.534   4.785  0.4450  0.0216  0.1443
  131POSM   NC3 1340   7.821   3.432   7.238 -0.3361  0.1521 -0.0660
  131POSM   PO4 1341   7.448   3.302   6.836  0.0992  0.2050 -0.0444
  131POSM   AM1 1342   7.398   3.428   6.393  0.1002 -0.1201 -0.1254
  131POSM   AM2 1343   7.305   3.228   6.129  0.1535  0.0326 -0.0791
  131POSM   T1A 1344   7.552   3.627   5.991 -0.1249 -0.0770  0.0552
  131POSM   C2A 1345   7.621   3.613   5.582  0.0206  0.0621 -0.0205
  131POSM   C3A 1346   7.666   3.452   5.128  0.1437  0.0638 -0.1200
  131POSM   C1B 1347   7.502   3.112   5.784 -0.0372 -0.1133  0.1521
  131POSM   D2B 1348   7.845   3.128   5.572 -0.1323 -0.2376  0.5036
  131POSM   C3B 1349   7.867   2.899   5.168 -0.1529  0.1972 -0.4135
  131POSM   C4B 1350   7.910   2.626   4.889 -0.0931 -0.0131  0.0414
  132POPC   NC3 1351  11.665   9.908   6.821  0.0123  0.1651  0.2014
  132POPC   PO4 1352  11.796   9.475   6.643 -0.0981 -0.0304 -0.2855
  132POPC   GL1 1353  11.870   9.556   6.230  0.0306  0.3716  0.0718
  132POPC   GL2 1354  11.597   9.482   6.026  0.1683  0.0301 -0.2712
  132POPC   C1A 1355  12.093   9.458   5.800 -0.1568 -0.2274  0.3931
  132POPC   D2A 1356  12.123   9.151   5.472  0.2154 -0.1275 -0.0542
  132POPC   C3A 1357  12.387   9.181   5.202  0.0247  0.1535  0.0026
  132POPC   C4A 1358  12.693   9.028   4.951 -0.0935 -0.0339  0.0432
  132POPC   C1B 1359  11.680   9.138   5.795  0.1446  0.0298 -0.0282
  132POPC   C2B 1360  11.591   9.082   5.401 -0.0430  0.2985  0.1709
  132POPC   C3B 1361  11.843   9.090   5.091 -0.2292  0.1084 -0.0387
  132POPC   C4B 1362  12.080   9.227   4.758  0.4119  0.3023 -0.1664
  133CHOL   ROH 1363  10.431  11.042   6.030 -0.0984  0.0555  0.1133
  133CHOL    R1 1364  10.404  10.976   5.756  0.0085  0.0005  0.1161
  133CHOL    R2 1365  10.285  11.145   5.573 -0.0264 -0.0863  0.0585
  133CHOL    R3 1366  10.519  11.113   5.439  0.0266  0.0096  0.1263
  133CHOL    R4 1367  10.327  11.193   5.233  0.0857  0.0593  0.0912
  133CHOL    R5 1368  10.455  11.017   5.230  0.1178  0.0833  0.0642
  133CHOL    C1 1369  10.571  11.190   4.910  0.2007  0.2341  0.1738
  133CHOL    C2 1370  10.757  11.373   4.744  0.1228  0.1985  0.0586
  134CHOL   ROH 1371  11.036   9.515   6.041 -0.0295 -0.1749  0.0071
  134CHOL    R1 1372  11.148   9.630   5.808 -0.2105  0.1270  0.0656
  134CHOL    R2 1373  11.283   9.482   5.619  0.2122  0.4618  0.0901
  134CHOL    R3 1374  11.105   9.597   5.449 -0.0040  0.0745  0.0427
  134CHOL    R4 1375  11.323   9.504   5.276  0.2705  0.5606  0.1028
  134CHOL    R5 1376  11.241   9.706   5.285 -0.1885  0.3897  0.0878
  134CHOL    C1 1377  11.179   9.625   4.917  0.1015  0.2546  0.0656
  134CHOL    C2 1378  11.373   9.882   4.669 -0.0324  0.1042  0.0905
  135POPE   NH3 1379   4.035  10.292   6.452  0.1786  0.0707  0.2132
  135POPE   PO4 1380   4.512  10.402   6.474  0.0028 -0.0850 -0.2852
  135POPE   GL1 1381   4.603  10.504   6.010 -0.3618  0.2712  0.0857
  135POPE   GL2 1382   4.658  10.823   5.979  0.2213  0.0906  0.4042
  135POPE   C1A 1383   4.526  10.319   5.566 -0.1085  0.1294 -0.2771
  135POPE   D2A 1384   4.136  10.311   5.268  0.2108 -0.1612  0.2203
  135POPE   C3A 1385   4.203  10.402   4.776 -0.0681 -0.1998  0.2478
  135POPE   C4A 1386   4.319  10.037   4.476  0.1397 -0.1000 -0.1477
  135POPE   C1B 1387   4.868  10.867   5.608 -0.2985  0.0627 -0.1460
  135POPE   C2B 1388   4.967  10.867   5.124  0.0189 -0.3154  0.0613
  135POPE   C3B 1389   5.368  10.714   4.987  0.0345 -0.2226 -0.1821
  135POPE   C4B 1390   5.799  10.717   4.947  0.1764  0.3279  0.0154
  136POPC   NC3 1391   3.330   6.681   6.818 -0.1566  0.0444 -0.0597
  136POPC   PO4 1392   3.564   6.782   6.455 -0.0816  0.1007 -0.0835
  136POPC   GL1 1393   3.408   6.766   6.168  0.4289 -0.0926 -0.1503
  136POPC   GL2 1394   3.333   6.450   6.087  0.2134 -0.0385 -0.0244
  136POPC   C1A 1395   3.445   6.934   5.737 -0.0575  0.0853 -0.1496
  136POPC   D2A 1396   3.424   7.034   5.330 -0.1498 -0.2107 -0.3948
  136POPC   C3A 1397   3.561   6.753   5.036 -0.0474 -0.2581  0.3527
  136POPC   C4A 1398   3.704   6.661   4.578 -0.1338 -0.3855 -0.0389
  136POPC   C1B 1399   3.278   6.421   5.680  0.1051 -0.2958 -0.2718
  136POPC   C2B 1400   3.356   6.389   5.325 -0.2331 -0.2637  0.3684
  136POPC   C3B 1401   3.176   6.237   4.920  0.1724  0.1719  0.1316
  136POPC   C4B 1402   2.836   6.295   4.685 -0.2229 -0.2213  0.0588
  137POPE   NH3 1403  11.823   7.407   6.658 -0.3136  0.2686 -0.1155
  137POPE   PO4 1404  11.877   7.807   6.422 -0.4001  0.1619  0.0564
  137POPE   GL1 1405  12.011   8.169   6.288 -0.2602  0.2454 -0.1354
  137POPE   GL2 1406  11.836   8.211   6.038 -0.2552  0.3606  0.0082
  137POPE   C1A 1407  12.392   8.363   6.042 -0.0847 -0.0791 -0.0411
  137POPE   D2A 1408  12.822   8.341   5.735  0.1821  0.5658  0.4770
  137POPE   C3A 1409  12.673   8.444   5.266 -0.2135  0.2296  0.0408
  137POPE   C4A 1410  12.881   8.513   4.921  0.0843  0.0770  0.0312
  137POPE   C1B 1411  11.943   8.143   5.709 -0.1953 -0.1324 -0.2954
  137POPE   C2B 1412  12.138   8.223   5.356 -0.0089 -0.1903 -0.3595
  137POPE   C3B 1413  12.319   8.109   5.033 -0.2454 -0.1891 -0.0611
  137POPE   C4B 1414  12.489   8.157   4.650  0.2428  0.3550 -0.0826
  138POSM   NC3 1415   5.686   3.876   6.771 -0.0286 -0.3787 -0.1677
  138POSM   PO4 1416   5.418   4.233   6.697 -0.1453 -0.1758  0.0615
  138POSM   AM1 1417   5.364   4.088   6.385  0.0805  0.0558  0.1368
  138POSM   AM2 1418   5.550   3.877   6.272  0.1331 -0.0585  0.0344
  138POSM   T1A 1419   5.140   4.132   5.960 -0.1861 -0.1275 -0.2258
  138POSM   C2A 1420   5.009   4.171   5.592  0.2028 -0.1393 -0.0898
  138POSM   C3A 1421   4.826   4.039   5.236  0.0947 -0.0653 -0.5155
  138POSM   C1B 1422   5.591   3.553   5.987 -0.0759 -0.1204  0.1673
  138POSM   D2B 1423   5.519   3.490   5.512  0.3640 -0.2111  0.2009
  138POSM   C3B 1424   5.770   3.697   5.327 -0.4932  0.4014 -0.0488
  138POSM   C4B 1425   5.884   4.064   5.216 -0.2400  0.0322  0.4075
  139CHOL   ROH 1426   4.254   5.657   5.998  0.0896  0.1630  0.0551
  139CHOL    R1 1427   4.255   5.782   5.745 -0.0509  0.1513  0.0484
  139CHOL    R2 1428   4.401   5.685   5.531  0.0276  0.2837  0.0445
  139CHOL    R3 1429   4.161   5.692   5.405  0.0129  0.0434  0.0577
  139CHOL    R4 1430   4.358   5.684   5.188  0.0398  0.5154  0.0415
  139CHOL    R5 1431   4.198   5.831   5.213 -0.1790  0.2695  0.1734
  139CHOL    C1 1432   4.106   5.691   4.870  0.0332  0.4248  0.0522
  139CHOL    C2 1433   3.884   5.826   4.614  0.1262 -0.5364 -0.0328
  140POPC   NC3 1434   7.823  12.001   7.084  0.3595  0.0187  0.1833
  140POPC   PO4 1435   7.424  11.750   6.878  0.0625  0.2628  0.2760
  140POPC   GL1 1436   7.326  11.921   6.424 -0.1742 -0.0406  0.1651
  140POPC   GL2 1437   6.992  11.926   6.547 -0.0231 -0.0337  0.0543
  140POPC   C1A 1438   7.430  12.087   6.034  0.2176  0.1307  0.3759
  140POPC   D2A 1439   7.804  12.258   5.779 -0.1047  0.0421 -0.0797
  140POPC   C3A 1440   8.094  12.070   5.574 -0.0172  0.4209 -0.1252
  140POPC   C4A 1441   8.425  11.926   5.734  0.1563  0.1227 -0.0787
  140POPC   C1B 1442   6.934  11.807   6.174  0.3952 -0.3076 -0.0634
  140POPC   C2B 1443   7.040  11.785   5.725 -0.0531 -0.0651 -0.2583
  140POPC   C3B 1444   7.395  12.137   5.498  0.3336  0.0575  0.1188
  140POPC   C4B 1445   7.740  12.272   5.277  0.1804  0.2812 -0.3400
  141POSM   NC3 1446   6.164  13.010   6.845  0.0697 -0.0671 -0.6240
  141POSM   PO4 1447   6.570  12.679   6.790 -0.3659  0.1589 -0.0782
  141POSM   AM1 1448   6.482  12.479   6.446  0.0289 -0.0709 -0.0692
  141POSM   AM2 1449   6.612  12.215   6.325  0.0553 -0.0272  0.1275
  141POSM   T1A 1450   6.500  12.603   6.008 -0.0732  0.0641 -0.1401
  141POSM   C2A 1451   6.495  12.550   5.548 -0.0076  0.3200  0.0934
  141POSM   C3A 1452   6.393  12.577   5.137 -0.1935 -0.1293 -0.1375
  141POSM   C1B 1453   6.489  11.991   5.944 -0.0848  0.0873 -0.1062
  141POSM   D2B 1454   6.594  11.990   5.546  0.0241 -0.2198 -0.0265
  141POSM   C3B 1455   6.511  12.060   5.189  0.1852  0.3869 -0.5386
  141POSM   C4B 1456   6.291  12.199   4.762  0.0645 -0.0502 -0.3641
  142POPC   NC3 1457  11.317  10.276   6.575  0.2023 -0.4345 -0.0801
  142POPC   PO4 1458  10.933  10.448   6.495  0.0251 -0.0976  0.0954
  142POPC   GL1 1459  11.118  10.449   6.146 -0.0264 -0.1467 -0.1846
  142POPC   GL2 1460  11.217  10.142   6.087 -0.1114  0.2997  0.3178
  142POPC   C1A 1461  11.160  10.547   5.688  0.0312 -0.2342  0.1396
  142POPC   D2A 1462  11.478  10.564   5.414 -0.2877  0.3524  0.1670
  142POPC   C3A 1463  11.315  10.469   5.036  0.2187 -0.1279  0.2389
  142POPC   C4A 1464  11.044  10.238   4.690 -0.1083 -0.2959  0.4062
  142POPC   C1B 1465  11.434  10.090   5.626 -0.3373  0.2664  0.1732
  142POPC   C2B 1466  11.686  10.022   5.234 -0.0883 -0.2617  0.1181
  142POPC   C3B 1467  11.831  10.075   4.803  0.1610 -0.0971  0.0249
  142POPC   C4B 1468  11.903   9.757   4.506 -0.2495  0.0159  0.2146
  143POPS   CNO 1469   9.615   3.686   6.607  0.1815 -0.2543  0.5860
  143POPS   PO4 1470   9.681   4.186   6.549 -0.2109  0.0358  0.1637
  143POPS   GL1 1471   9.657   4.022   6.160  0.0342  0.3043 -0.2660
  143POPS   GL2 1472   9.498   4.197   6.041  0.0391  0.0073 -0.0863
  143POPS   C1A 1473   9.727   3.755   5.836  0.2373 -0.4518 -0.0336
  143POPS   D2A 1474   9.797   3.283   5.763 -0.2303  0.0144 -0.1656
  143POPS   C3A 1475   9.410   3.137   5.558  0.1553 -0.1388  0.0080
  143POPS   C4A 1476   9.124   3.125   5.316  0.1977 -0.2853  0.2611
  143POPS   C1B 1477   9.656   4.211   5.617  0.0414 -0.0076 -0.0155
  143POPS   C2B 1478   9.666   4.290   5.083 -0.2788 -0.2243 -0.0177
  143POPS   C3B 1479   9.253   4.340   4.771  0.0485  0.0457  0.1851
  143POPS   C4B 1480   8.993   4.117   4.486 -0.1479  0.0021 -0.0873
  144CHOL   ROH 1481   8.825  12.200   5.873  0.1082  0.1918  0.0095
  144CHOL    R1 1482   8.953  12.197   5.621  0.2400  0.3779  0.0708
  144CHOL    R2 1483   8.832  12.097   5.394  0.5788 -0.0346  0.0612
  144CHOL    R3 1484   8.894  12.341   5.292  0.0361  0.0805 -0.0267
  144CHOL    R4 1485   8.914  12.158   5.063  0.4084  0.0378  0.0310
  144CHOL    R5 1486   9.068  12.296   5.132  0.1227  0.4035 -0.0307
  144CHOL    C1 1487   9.020  12.422   4.775 -0.2003  0.1881 -0.0692
  144CHOL    C2 1488   9.216  12.080   4.638  0.1608  0.0072 -0.0139
  145POSM   NC3 1489   8.453   2.622   7.018  0.1154  0.0489 -0.0825
  145POSM   PO4 1490   8.149   2.614   6.631 -0.1585 -0.0251  0.3217
  145POSM   AM1 1491   8.047   2.718   6.133  0.0430 -0.1637 -0.1941
  145POSM   AM2 1492   7.882   2.963   6.023 -0.0650  0.1809  0.0318
  145POSM   T1A 1493   8.220   2.854   5.720 -0.4791  0.0971  0.2450
  145POSM   C2A 1494   8.414   3.114   5.383  0.1076 -0.1557 -0.1462
  145POSM   C3A 1495   8.503   3.258   5.040  0.0217 -0.1266  0.2761
  145POSM   C1B 1496   7.795   2.625   5.707 -0.0352  0.1045 -0.0787
  145POSM   D2B 1497   7.833   2.483   5.405 -0.0098 -0.2328 -0.1393
  145POSM   C3B 1498   8.203   2.604   5.296 -0.0446  0.1845 -0.1304
  145POSM   C4B 1499   8.408   2.675   4.783 -0.0975 -0.1676  0.1669
  146POSM   NC3 1500   4.951  12.533   6.640 -0.5651  0.0243  0.0250
  146POSM   PO4 1501   5.182  12.141   6.622 -0.0034 -0.0396  0.0433
  146POSM   AM1 1502   5.421  12.139   6.256 -0.1516  0.0844  0.0373
  146POSM   AM2 1503   5.366  12.494   6.222 -0.0802 -0.3409 -0.0024
  146POSM   T1A 1504   5.603  11.942   5.843 -0.5404  0.2259  0.2418
  146POSM   C2A 1505   5.740  11.872   5.433 -0.3060  0.2005  0.1339
  146POSM   C3A 1506   5.557  11.771   5.024  0.0595 -0.5652  0.0456
  146POSM   C1B 1507   5.278  12.419   5.812  0.0556  0.0895  0.1355
  146POSM   D2B 1508   5.447  12.282   5.424 -0.0461 -0.5143  0.0495
  146POSM   C3B 1509   5.287  12.289   5.015  0.0882  0.3229 -0.0137
  146POSM   C4B 1510   5.254  12.449   4.587  0.0751 -0.0568 -0.0746
  147CHOL   ROH 1511  12.013   6.758   6.274 -0.0648 -0.2387  0.0134
  147CHOL    R1 1512  12.163   6.773   6.034 -0.0161 -0.1854  0.0463
  147CHOL    R2 1513  12.206   6.553   5.872 -0.1676 -0.1027 -0.1005
  147CHOL    R3 1514  12.101   6.714   5.680 -0.0076  0.1169 -0.0092
  147CHOL    R4 1515  12.246   6.507   5.532 -0.3197 -0.0405 -0.1278
  147CHOL    R5 1516  12.270   6.722   5.510 -0.0323 -0.0523 -0.0535
  147CHOL    C1 1517  12.170   6.631   5.153 -0.2581  0.2020 -0.0580
  147CHOL    C2 1518  12.205   6.643   4.736 -0.1509  0.0625  0.4073
  148POPS   CNO 1519   4.326   9.887   6.558 -0.0864 -0.0156 -0.1450
  148POPS   PO4 1520   3.892   9.934   6.774  0.0252  0.2567  0.0679
  148POPS   GL1 1521   3.871   9.835   6.325  0.0661  0.2029 -0.0276
  148POPS   GL2 1522   3.745   9.964   6.030  0.1722 -0.0593  0.2129
  148POPS   C1A 1523   3.701   9.476   6.015  0.1109  0.1841 -0.0805
  148POPS   D2A 1524   3.469   9.243   5.726  0.0468  0.2278  0.3058
  148POPS   C3A 1525   3.658   8.935   5.387 -0.0317  0.3723 -0.2165
  148POPS   C4A 1526   3.685   8.557   5.284  0.0188 -0.2725 -0.2173
  148POPS   C1B 1527   3.704  10.260   5.715 -0.0077 -0.0756  0.0720
  148POPS   C2B 1528   3.650  10.558   5.493  0.0190 -0.1794  0.0141
  148POPS   C3B 1529   3.947  10.871   5.171  0.0159  0.0050 -0.1211
  148POPS   C4B 1530   4.177  11.004   4.828  0.0843 -0.0357  0.2215
  149POSM   NC3 1531   2.721   7.411   6.664  0.0891  0.2293  0.0816
  149POSM   PO4 1532   3.092   7.065   6.469 -0.2732  0.0431 -0.1298
  149POSM   AM1 1533   3.237   7.295   6.164  0.0976  0.1356 -0.3932
  149POSM   AM2 1534   3.535   7.281   6.214 -0.0266  0.0101  0.0072
  149POSM   T1A 1535   3.304   7.765   6.091  0.3659  0.0819  0.2553
  149POSM   C2A 1536   3.236   8.117   5.914  0.1960  0.2100 -0.0147
  149POSM   C3A 1537   3.335   8.392   5.673  0.0339  0.2495 -0.2572
  149POSM   C1B 1538   3.587   7.439   5.766 -0.1353  0.0481  0.0809
  149POSM   D2B 1539   3.505   7.799   5.613  0.2079  0.0182 -0.1009
  149POSM   C3B 1540   3.047   7.827   5.498 -0.0776 -0.1835 -0.0100
  149POSM   C4B 1541   2.715   7.917   5.190 -0.0048 -0.1721 -0.1013
  150CHOL   ROH 1542  12.505   7.799   6.249 -0.0261  0.1095 -0.0679
  150CHOL    R1 1543  12.366   7.781   6.003  0.0107 -0.1056 -0.0743
  150CHOL    R2 1544  12.434   7.933   5.782 -0.2102  0.0034 -0.0717
  150CHOL    R3 1545  12.446   7.690   5.660  0.1708  0.0163 -0.0708
  150CHOL    R4 1546  12.420   7.882   5.440 -0.2022 -0.0268 -0.0676
  150CHOL    R5 1547  12.294   7.708   5.476  0.0958 -0.2421 -0.0361
  150CHOL    C1 1548  12.423   7.624   5.127  0.1602 -0.0323 -0.0642
  150CHOL    C2 1549  12.600   7.652   4.776 -0.0042 -0.0438 -0.0132
  151CHOL   ROH 1550   5.952  12.287   6.231  0.0447  0.0062 -0.0196
  151CHOL    R1 1551   5.977  12.402   5.974 -0.0703 -0.0125 -0.0392
  151CHOL    R2 1552   6.148  12.300   5.781 -0.0235  0.0809 -0.0454
  151CHOL    R3 1553   5.922  12.295   5.630 -0.0395 -0.1006 -0.0178
  151CHOL    R4 1554   6.140  12.257   5.439 -0.0251  0.0992 -0.0479
  151CHOL    R5 1555   5.983  12.407   5.428 -0.1573 -0.0316 -0.0177
  151CHOL    C1 1556   5.924  12.227   5.097 -0.0411 -0.0605 -0.0234
  151CHOL    C2 1557   5.783  12.206   4.684 -0.0599 -0.0488  0.2471
  152POSM   NC3 1558   4.017   5.554   6.733  0.1779  0.0584  0.1383
  152POSM   PO4 1559   4.241   5.323   6.409 -0.0766  0.1398  0.0196
  152POSM   AM1 1560   4.275   4.905   6.245 -0.0518  0.0688  0.1000
  152POSM   AM2 1561   3.973   4.727   6.292  0.1882 -0.0737 -0.2282
  152POSM   T1A 1562   4.248   4.628   5.858 -0.1185 -0.1293 -0.2378
  152POSM   C2A 1563   4.343   4.731   5.437  0.2805  0.2751 -0.1353
  152POSM   C3A 1564   4.600   4.804   5.031  0.0920 -0.3139  0.0491
  152POSM   C1B 1565   3.815   4.878   5.978  0.1085  0.0648 -0.0426
  152POSM   D2B 1566   3.763   5.054   5.572  0.0949  0.2131  0.0158
  152POSM   C3B 1567   3.471   4.832   5.203  0.0811  0.0917  0.0038
  152POSM   C4B 1568   3.539   4.718   4.821  0.1805 -0.2658 -0.0033
  153POPS   CNO 1569   5.058   3.423   6.770  0.0859  0.0684 -0.1834
  153POPS   PO4 1570   5.187   3.753   6.721 -0.0868  0.2069 -0.2715
  153POPS   GL1 1571   5.060   3.682   6.256 -0.0703  0.1895  0.2148
  153POPS   GL2 1572   4.862   3.568   6.161  0.0726 -0.0596 -0.0333
  153POPS   C1A 1573   5.109   3.671   5.759 -0.1381  0.0363 -0.0281
  153POPS   D2A 1574   4.987   3.546   5.353  0.0851  0.2816 -0.1260
  153POPS   C3A 1575   5.015   3.715   4.912  0.1732  0.0091 -0.1809
  153POPS   C4A 1576   5.039   3.737   4.496 -0.3457  0.0491  0.1970
  153POPS   C1B 1577   5.117   3.205   5.965 -0.0251 -0.1025  0.0863
  153POPS   C2B 1578   5.266   3.107   5.604 -0.0609 -0.0535 -0.0436
  153POPS   C3B 1579   5.333   3.281   5.134  0.4387  0.3439  0.2296
  153POPS   C4B 1580   5.500   3.682   4.806 -0.1534 -0.0902 -0.2175
  154POSM   NC3 1581   9.115  11.547   6.977  0.0992 -0.0252 -0.2302
  154POSM   PO4 1582   9.577  11.430   6.699 -0.0388  0.0166 -0.2207
  154POSM   AM1 1583   9.511  11.847   6.436 -0.1558  0.2590 -0.0804
  154POSM   AM2 1584   9.820  12.029   6.339 -0.0481  0.1690 -0.1176
  154POSM   T1A 1585   9.363  11.996   5.989 -0.1554 -0.0596 -0.1653
  154POSM   C2A 1586   9.429  12.038   5.507  0.0161 -0.0312  0.1179
  154POSM   C3A 1587   9.561  12.111   5.100  0.1164 -0.1817 -0.0587
  154POSM   C1B 1588   9.848  11.954   5.858  0.2433 -0.2102 -0.3827
  154POSM   D2B 1589   9.951  12.203   5.479  0.2439  0.2337  0.3294
  154POSM   C3B 1590   9.720  12.538   5.276  0.0186 -0.0101  0.0831
  154POSM   C4B 1591   9.621  12.902   5.091  0.1700  0.0377  0.1028
  155CHOL   ROH 1592  10.923  10.982   6.025 -0.0396  0.0393 -0.0360
  155CHOL    R1 1593  10.868  10.989   5.747  0.0313 -0.0130 -0.0516
  155CHOL    R2 1594  10.969  11.185   5.580 -0.0242  0.0246 -0.0413
  155CHOL    R3 1595  11.061  10.972   5.439  0.1234  0.0592  0.0014
  155CHOL    R4 1596  10.950  11.153   5.237 -0.0358 -0.0703 -0.0319
  155CHOL    R5 1597  10.900  10.942   5.264  0.1257 -0.1037  0.0245
  155CHOL    C1 1598  11.026  10.934   4.904  0.0959 -0.0930  0.0136
  155CHOL    C2 1599  10.878  11.004   4.482  0.2413 -0.2932  0.1137
  156CHOL   ROH 1600  11.450   4.848   5.819 -0.2967  0.0213  0.2345
  156CHOL    R1 1601  11.268   4.756   5.623 -0.1003 -0.1704  0.1405
  156CHOL    R2 1602  11.202   4.905   5.400 -0.3032 -0.1428  0.2164
  156CHOL    R3 1603  11.279   4.681   5.267  0.1084  0.0614  0.0942
  156CHOL    R4 1604  11.146   4.846   5.064 -0.7207 -0.2958  0.3060
  156CHOL    R5 1605  11.100   4.639   5.113 -0.0556 -0.4438  0.3989
  156CHOL    C1 1606  11.186   4.602   4.743 -0.5775 -0.1932  0.2434
  156CHOL    C2 1607  11.210   4.445   4.260 -0.3573 -0.0119  0.0456
  157POPE   NH3 1608   9.208   3.948   6.469  0.0739  0.0804  0.1003
  157POPE   PO4 1609   8.832   3.778   6.496  0.1955 -0.1347 -0.1493
  157POPE   GL1 1610   8.797   3.715   6.121  0.0560 -0.0603  0.0513
  157POPE   GL2 1611   8.607   3.788   5.880 -0.1700 -0.3938 -0.1413
  157POPE   C1A 1612   8.893   3.344   5.819 -0.0033  0.2582 -0.1356
  157POPE   D2A 1613   8.988   2.891   5.824 -0.0437 -0.1975  0.0474
  157POPE   C3A 1614   9.262   2.671   5.454  0.0326  0.2106 -0.3442
  157POPE   C4A 1615   9.359   2.506   5.180  0.0830 -0.1877  0.1054
  157POPE   C1B 1616   8.701   3.748   5.444  0.0976  0.0646 -0.0869
  157POPE   C2B 1617   8.924   3.556   5.063 -0.2781 -0.1610 -0.1995
  157POPE   C3B 1618   9.401   3.488   4.999 -0.2965 -0.1176 -0.2959
  157POPE   C4B 1619   9.779   3.312   5.270  0.0408 -0.2320 -0.1738
  158POSM   NC3 1620   4.263  11.305   7.350  0.3507  0.1830 -0.1052
  158POSM   PO4 1621   4.214  11.188   6.938  0.2342 -0.0700 -0.0868
  158POSM   AM1 1622   4.209  11.410   6.499 -0.1020  0.1062  0.4854
  158POSM   AM2 1623   4.529  11.543   6.320 -0.0239  0.0132  0.2510
  158POSM   T1A 1624   4.133  11.620   6.116  0.1857  0.0605 -0.1180
  158POSM   C2A 1625   3.933  11.542   5.797 -0.1469  0.0577 -0.2095
  158POSM   C3A 1626   3.832  11.072   5.679  0.1656  0.0157  0.0337
  158POSM   C1B 1627   4.606  11.697   5.922 -0.2186  0.3063 -0.2915
  158POSM   D2B 1628   4.446  11.865   5.627 -0.0890 -0.1467  0.1352
  158POSM   C3B 1629   4.623  11.856   5.294 -0.3921  0.0149  0.1514
  158POSM   C4B 1630   4.737  12.054   4.881  0.1648  0.1907  0.0569
  159POPE   NH3 1631  10.942   4.801   6.657 -0.1909  0.1247  0.0602
  159POPE   PO4 1632  11.239   4.584   6.380 -0.0911 -0.1017 -0.0857
  159POPE   GL1 1633  11.478   4.399   6.038  0.4225  0.1278 -0.1107
  159POPE   GL2 1634  11.801   4.531   5.916 -0.0755 -0.0711  0.1228
  159POPE   C1A 1635  11.373   3.965   5.752  0.2209  0.0824  0.4651
  159POPE   D2A 1636  11.375   3.590   5.443  0.1997 -0.0986  0.1651
  159POPE   C3A 1637  11.192   3.612   5.085 -0.5191 -0.0688  0.0023
  159POPE   C4A 1638  11.344   3.695   4.634 -0.1922 -0.0483  0.1534
  159POPE   C1B 1639  11.611   4.364   5.481  0.0365  0.1940 -0.2289
  159POPE   C2B 1640  11.541   4.363   5.025 -0.0012 -0.4828  0.0348
  159POPE   C3B 1641  11.536   4.258   4.642  0.2095  0.2161 -0.0836
  159POPE   C4B 1642  11.477   4.026   4.286 -0.1282  0.0083  0.3429
  160POPS   CNO 1643   4.895  11.717   7.049  0.2379 -0.2926  0.2857
  160POPS   PO4 1644   4.759  11.858   6.694  0.1796  0.0300  0.1651
  160POPS   GL1 1645   4.708  12.137   6.349  0.0725 -0.1508 -0.2434
  160POPS   GL2 1646   4.893  12.250   6.173  0.0227 -0.0658  0.1878
  160POPS   C1A 1647   4.347  12.159   6.098  0.1450 -0.0855 -0.0901
  160POPS   D2A 1648   4.012  12.201   5.873  0.0588 -0.0746 -0.0477
  160POPS   C3A 1649   3.944  11.958   5.492  0.2004  0.1165 -0.2777
  160POPS   C4A 1650   3.573  11.929   5.283  0.1417  0.2856  0.0471
  160POPS   C1B 1651   4.779  12.205   5.771 -0.2084 -0.1590 -0.1460
  160POPS   C2B 1652   4.922  12.270   5.352  0.1332 -0.0602  0.0184
  160POPS   C3B 1653   4.850  12.577   4.973 -0.1109  0.0939 -0.0345
  160POPS   C4B 1654   4.732  12.507   4.576  0.2409  0.3020 -0.0206
  161POPS   CNO 1655  11.977   4.771   6.888 -0.1874 -0.2236 -0.1001
  161POPS   PO4 1656  11.992   5.123   6.653  0.2140 -0.2530 -0.0242
  161POPS   GL1 1657  12.021   5.184   6.175 -0.0703  0.1408 -0.0887
  161POPS   GL2 1658  12.337   5.259   6.099  0.1977 -0.2033 -0.1717
  161POPS   C1A 1659  12.036   5.101   5.678  0.0143  0.0339  0.1074
  161POPS   D2A 1660  11.766   4.798   5.376  0.0595 -0.3541 -0.1826
  161POPS   C3A 1661  11.691   4.869   4.956  0.1889  0.2449  0.0086
  161POPS   C4A 1662  11.427   5.021   4.613  0.1230  0.1860  0.1653
  161POPS   C1B 1663  12.450   5.314   5.602 -0.2467  0.3182  0.0752
  161POPS   C2B 1664  12.746   5.135   5.288 -0.0687  0.0990 -0.3593
  161POPS   C3B 1665  12.888   4.904   4.912 -0.2619  0.0413 -0.2532
  161POPS   C4B 1666  13.272   5.151   4.854  0.2088 -0.1613 -0.3037
  162CHOL   ROH 1667   3.978   5.972   6.316 -0.1246  0.0017 -0.0284
  162CHOL    R1 1668   3.907   5.935   6.045 -0.1594 -0.0440 -0.0122
  162CHOL    R2 1669   3.738   6.107   5.910  0.0377  0.0787 -0.0872
  162CHOL    R3 1670   3.945   6.120   5.734  0.0525 -0.2285 -0.1015
  162CHOL    R4 1671   3.707   6.193   5.577  0.1713  0.5636  0.0158
  162CHOL    R5 1672   3.852   6.037   5.529 -0.2122  0.2369 -0.1947
  162CHOL    C1 1673   3.882   6.256   5.217  0.2630  0.5576  0.0623
  162CHOL    C2 1674   3.642   6.283   4.892  0.0369 -0.2337  0.1182
  163POPS   CNO 1675   6.780   1.973   6.543 -0.0742 -0.0311 -0.1041
  163POPS   PO4 1676   7.212   2.171   6.597  0.2501 -0.2228 -0.2180
  163POPS   GL1 1677   7.065   2.195   6.173 -0.0450  0.0359  0.1487
  163POPS   GL2 1678   6.734   2.404   6.343 -0.1338  0.2360  0.0638
  163POPS   C1A 1679   6.957   2.306   5.763  0.1976 -0.0186  0.1686
  163POPS   D2A 1680   7.005   2.571   5.298 -0.2539 -0.2395 -0.0771
  163POPS   C3A 1681   6.581   2.654   5.090  0.1259  0.2028  0.1906
  163POPS   C4A 1682   6.473   2.551   4.575  0.0015 -0.2053 -0.0990
  163POPS   C1B 1683   6.449   2.287   5.969 -0.1853  0.0322 -0.0797
  163POPS   C2B 1684   6.541   2.315   5.469  0.1454  0.3911  0.2040
  163POPS   C3B 1685   6.408   2.011   5.154 -0.0003 -0.0203 -0.0036
  163POPS   C4B 1686   6.386   1.995   4.715  0.0529  0.0975 -0.1506
  164POPE   NH3 1687   6.676   3.658   6.607  0.4371 -0.0416 -0.1355
  164POPE   PO4 1688   6.953   3.285   6.626 -0.0646  0.0912 -0.2636
  164POPE   GL1 1689   6.824   3.126   6.228 -0.1544 -0.0375 -0.1312
  164POPE   GL2 1690   7.058   2.801   6.173 -0.0243 -0.0501  0.3415
  164POPE   C1A 1691   6.902   3.294   5.837 -0.1447  0.0026 -0.1243
  164POPE   D2A 1692   7.215   3.285   5.445  0.1262 -0.2604 -0.1770
  164POPE   C3A 1693   7.381   3.061   5.047 -0.0948  0.1223  0.1408
  164POPE   C4A 1694   7.699   3.109   4.705 -0.1881 -0.0692  0.0953
  164POPE   C1B 1695   7.168   2.774   5.722  0.0424  0.0968  0.1483
  164POPE   C2B 1696   7.442   2.738   5.398 -0.0748  0.1045  0.2610
  164POPE   C3B 1697   7.439   2.488   4.996  0.1622 -0.0375 -0.1396
  164POPE   C4B 1698   7.270   2.197   4.613  0.3908 -0.0609  0.1114
  165POPS   CNO 1699  13.055   6.857   6.557  0.0103 -0.1085 -0.0480
  165POPS   PO4 1700  12.868   7.228   6.407 -0.0487 -0.2038 -0.0017
  165POPS   GL1 1701  12.975   6.972   6.073  0.0459  0.0087  0.1314
  165POPS   GL2 1702  12.677   6.834   6.052  0.0953  0.3420 -0.1336
  165POPS   C1A 1703  13.119   7.006   5.598  0.1116 -0.3262 -0.0221
  165POPS   D2A 1704  13.516   7.156   5.464 -0.0291 -0.1714  0.4449
  165POPS   C3A 1705  13.571   6.915   5.026  0.1825 -0.0150 -0.2453
  165POPS   C4A 1706  13.495   7.029   4.506 -0.2524 -0.2065 -0.0342
  165POPS   C1B 1707  12.674   6.852   5.677  0.0087 -0.2543  0.3734
  165POPS   C2B 1708  12.708   6.860   5.220 -0.1702 -0.2026  0.0261
  165POPS   C3B 1709  12.637   6.555   4.879  0.2113  0.0711 -0.1949
  165POPS   C4B 1710  12.530   6.199   4.619 -0.1072  0.0325  0.0847
  166POPE   NH3 1711   5.272  13.211   6.818  0.0972  0.3650  0.1479
  166POPE   PO4 1712   5.307  12.924   6.514  0.0081 -0.0780  0.0644
  166POPE   GL1 1713   5.532  12.925   6.023 -0.1983 -0.1176 -0.0903
  166POPE   GL2 1714   5.654  13.193   5.939 -0.3480 -0.3209  0.1739
  166POPE   C1A 1715   5.646  12.750   5.681  0.0581  0.1072 -0.3342
  166POPE   D2A 1716   5.620  12.696   5.271 -0.1841 -0.1597 -0.0594
  166POPE   C3A 1717   5.863  12.700   4.920 -0.2445  0.0647  0.0557
  166POPE   C4A 1718   6.167  12.674   4.653 -0.0248 -0.0261 -0.0744
  166POPE   C1B 1719   5.674  13.223   5.558 -0.0678  0.1048 -0.0075
  166POPE   C2B 1720   5.640  13.231   5.156 -0.2315  0.2879 -0.1253
  166POPE   C3B 1721   5.761  13.147   4.804 -0.2149 -0.0525 -0.1776
  166POPE   C4B 1722   5.670  13.204   4.436  0.0056  0.1469 -0.0856
  167POSM   NC3 1723   1.843   9.102   7.060  0.3381 -0.0785 -0.0332
  167POSM   PO4 1724   2.159   8.903   6.729 -0.0611  0.2503 -0.2279
  167POSM   AM1 1725   2.339   8.750   6.384 -0.2068 -0.4033  0.2002
  167POSM   AM2 1726   2.711   8.768   6.447 -0.3752 -0.1920 -0.1151
  167POSM   T1A 1727   2.599   8.625   5.947  0.1880 -0.0498 -0.1143
  167POSM   C2A 1728   2.897   8.503   5.711  0.2641 -0.2157 -0.1949
  167POSM   C3A 1729   2.976   8.301   5.369 -0.1805 -0.0275 -0.1643
  167POSM   C1B 1730   3.099   8.655   6.115 -0.2110 -0.1257 -0.2649
  167POSM   D2B 1731   3.467   8.861   6.071  0.3586 -0.2378  0.2457
  167POSM   C3B 1732   3.690   8.646   5.849 -0.2140  0.1117 -0.0837
  167POSM   C4B 1733   3.831   8.195   5.785 -0.3358 -0.0116 -0.2672
  168POSM   NC3 1734   3.827  10.390   6.976 -0.0062  0.2240  0.1116
  168POSM   PO4 1735   3.675  10.618   6.650 -0.0352  0.3262 -0.0075
  168POSM   AM1 1736   3.659  10.639   6.216  0.0111 -0.0028 -0.1925
  168POSM   AM2 1737   3.444  10.546   6.068 -0.0251  0.0716  0.0075
  168POSM   T1A 1738   4.026  10.712   6.047  0.0890 -0.2482 -0.2106
  168POSM   C2A 1739   4.215  10.695   5.604 -0.1579 -0.0969 -0.1926
  168POSM   C3A 1740   4.411  10.700   5.175  0.1611  0.2716 -0.1302
  168POSM   C1B 1741   3.360  10.829   5.728 -0.2945 -0.1276 -0.3214
  168POSM   D2B 1742   3.316  11.023   5.382 -0.2431  0.2233 -0.0523
  168POSM   C3B 1743   3.454  10.830   5.053 -0.2680  0.2029 -0.1194
  168POSM   C4B 1744   3.223  10.748   4.646 -0.2886  0.2731  0.3088
  169CHOL   ROH 1745   2.380   6.147   5.887 -0.1954  0.0436 -0.0608
  169CHOL    R1 1746   2.282   6.013   5.658 -0.1783  0.0126 -0.0498
  169CHOL    R2 1747   2.136   6.141   5.461 -0.2128 -0.0259 -0.0503
  169CHOL    R3 1748   2.326   6.038   5.297 -0.1982  0.0041 -0.0525
  169CHOL    R4 1749   2.085   6.051   5.131 -0.2083 -0.0708 -0.0391
  169CHOL    R5 1750   2.210   5.876   5.165 -0.1650 -0.0364 -0.0302
  169CHOL    C1 1751   2.235   5.903   4.785 -0.1920 -0.0688 -0.0346
  169CHOL    C2 1752   2.132   5.771   4.425 -0.0824  0.2916 -0.1342
  170CHOL   ROH 1753   3.156   6.025   6.337  0.1081 -0.2552  0.1318
  170CHOL    R1 1754   3.270   5.905   6.107 -0.0241 -0.2433  0.0581
  170CHOL    R2 1755   3.118   5.824   5.891 -0.1285 -0.0306  0.0427
  170CHOL    R3 1756   3.289   5.982   5.752 -0.0284 -0.0981  0.0904
  170CHOL    R4 1757   3.190   5.791   5.555 -0.0765 -0.0246  0.0540
  170CHOL    R5 1758   3.398   5.834   5.600 -0.0691 -0.1281  0.0960
  170CHOL    C1 1759   3.393   5.920   5.229  0.0479 -0.0845  0.1054
  170CHOL    C2 1760   3.563   5.792   5.037  0.0626  0.1425 -0.0735
  171CHOL   ROH 1761   5.938   2.588   6.232 -0.2417  0.1807  0.0764
  171CHOL    R1 1762   5.928   2.691   5.969 -0.0869  0.2007  0.0778
  171CHOL    R2 1763   6.154   2.721   5.811 -0.0459 -0.1650  0.0738
  171CHOL    R3 1764   6.010   2.571   5.635 -0.2954  0.0693  0.0691
  171CHOL    R4 1765   6.214   2.703   5.471 -0.1791 -0.0971  0.0450
  171CHOL    R5 1766   5.999   2.706   5.438 -0.2030  0.1739  0.1235
  171CHOL    C1 1767   6.115   2.552   5.108 -0.4909  0.1625  0.0239
  171CHOL    C2 1768   6.070   2.400   4.819  0.1432 -0.1276 -0.2607
  172POPC   NC3 1769   3.893   3.518   6.646  0.1625 -0.1438 -0.1911
  172POPC   PO4 1770   3.982   3.949   6.638 -0.0347 -0.1253  0.3224
  172POPC   GL1 1771   4.163   3.811   6.279 -0.2095 -0.1274 -0.0045
  172POPC   GL2 1772   4.013   4.008   6.094 -0.1324  0.0369  0.3405
  172POPC   C1A 1773   4.378   3.462   5.982 -0.1797  0.1594  0.2294
  172POPC   D2A 1774   4.635   3.295   5.844 -0.0606 -0.1422 -0.3820
  172POPC   C3A 1775   4.609   3.239   5.466  0.1170  0.3970 -0.1881
  172POPC   C4A 1776   4.726   3.130   5.037 -0.0049 -0.0395 -0.3199
  172POPC   C1B 1777   4.063   4.043   5.695  0.0121  0.1653  0.0416
  172POPC   C2B 1778   4.077   3.937   5.222 -0.3190 -0.3312  0.1084
  172POPC   C3B 1779   4.178   3.863   4.731  0.0244  0.0659 -0.0805
  172POPC   C4B 1780   4.302   3.799   4.288  0.0995 -0.0828 -0.1587
  173POPE   NH3 1781  12.128  10.316   6.294  0.0551 -0.1389  0.2824
  173POPE   PO4 1782  12.532  10.180   6.454 -0.0094  0.4044 -0.0290
  173POPE   GL1 1783  12.586  10.086   6.118  0.1087 -0.0869  0.0052
  173POPE   GL2 1784  12.430   9.783   6.097 -0.0234  0.0865  0.0715
  173POPE   C1A 1785  12.579  10.019   5.641 -0.0809 -0.1780  0.2288
  173POPE   D2A 1786  12.313  10.132   5.199 -0.0712 -0.0428  0.4969
  173POPE   C3A 1787  12.361  10.353   4.814  0.0135 -0.1633 -0.2112
  173POPE   C4A 1788  12.295  10.757   4.617  0.1620  0.0799  0.1495
  173POPE   C1B 1789  12.874   9.722   5.932 -0.2802 -0.0564 -0.1396
  173POPE   C2B 1790  12.974   9.608   5.455  0.1480  0.0668  0.1087
  173POPE   C3B 1791  12.763   9.513   5.081 -0.0565 -0.0094  0.2269
  173POPE   C4B 1792  12.944   9.513   4.695  0.0495  0.0302 -0.2361
  174POSM   NC3 1793  11.587   4.075   6.473 -0.1502 -0.0751  0.0006
  174POSM   PO4 1794  11.337   3.742   6.717  0.3001  0.0265 -0.0059
  174POSM   AM1 1795  11.479   3.534   6.286  0.0979  0.0633  0.0228
  174POSM   AM2 1796  11.678   3.758   6.098  0.2261  0.1320  0.1502
  174POSM   T1A 1797  11.217   3.505   5.963  0.2253  0.2322  0.0644
  174POSM   C2A 1798  10.898   3.645   5.676 -0.1618  0.0067 -0.0324
  174POSM   C3A 1799  10.587   3.820   5.496 -0.0047  0.0659  0.0635
  174POSM   C1B 1800  11.688   3.455   5.769 -0.1238 -0.1480  0.3279
  174POSM   D2B 1801  11.634   3.040   5.459  0.0735  0.0826  0.1302
  174POSM   C3B 1802  11.526   3.039   5.073  0.1226  0.0171 -0.0571
  174POSM   C4B 1803  11.606   3.234   4.753  0.1093  0.1943  0.2067
  175POPC   NC3 1804  12.701   9.212   6.617  0.1083 -0.2878  0.0472
  175POPC   PO4 1805  12.345   9.440   6.651  0.0237 -0.0095  0.1146
  175POPC   GL1 1806  12.322   9.245   6.260 -0.0732  0.3642  0.2229
  175POPC   GL2 1807  12.614   9.338   6.065  0.0902  0.0059 -0.0133
  175POPC   C1A 1808  12.146   8.933   5.935 -0.0725 -0.1071  0.1016
  175POPC   D2A 1809  12.355   8.719   5.485 -0.0617  0.0837 -0.1365
  175POPC   C3A 1810  12.297   8.617   4.938  0.0269  0.1280  0.0899
  175POPC   C4A 1811  12.240   8.621   4.575 -0.1410  0.2338 -0.0040
  175POPC   C1B 1812  12.515   9.425   5.646  0.0296  0.2568 -0.0340
  175POPC   C2B 1813  12.280   9.687   5.298  0.0570 -0.1746 -0.0535
  175POPC   C3B 1814  12.181   9.744   4.912  0.0348  0.1676 -0.3240
  175POPC   C4B 1815  12.448   9.552   4.666 -0.3779  0.0360 -0.3602
  176POPC   NC3 1816   7.714   2.132   6.410 -0.0512 -0.1529 -0.3473
  176POPC   PO4 1817   8.119   2.122   6.493  0.4468 -0.1814  0.0552
  176POPC   GL1 1818   8.169   2.123   6.009 -0.2961  0.0474  0.0858
  176POPC   GL2 1819   7.909   2.202   5.905 -0.1536  0.0630 -0.2518
  176POPC   C1A 1820   8.507   2.339   5.688 -0.2180 -0.1838  0.0810
  176POPC   D2A 1821   8.643   2.731   5.530  0.3102 -0.0021  0.2258
  176POPC   C3A 1822   8.803   2.837   5.056  0.2417 -0.1395  0.1543
  176POPC   C4A 1823   8.808   3.096   4.689 -0.0880 -0.0034 -0.4103
  176POPC   C1B 1824   7.439   2.324   5.837  0.1552 -0.3600  0.3549
  176POPC   C2B 1825   7.308   2.249   5.445 -0.1545 -0.2254  0.3617
  176POPC   C3B 1826   7.289   1.855   5.016  0.2107  0.1405  0.0899
  176POPC   C4B 1827   7.241   1.649   4.619  0.3810 -0.2142  0.0855
  177POPS   CNO 1828  12.286   6.151   6.809 -0.0471  0.0314  0.0793
  177POPS   PO4 1829  12.265   5.951   6.538 -0.2668  0.0549 -0.0409
  177POPS   GL1 1830  12.343   5.880   6.110 -0.0537 -0.1715 -0.1442
  177POPS   GL2 1831  12.676   5.627   5.967  0.2279  0.2226 -0.0221
  177POPS   C1A 1832  12.488   6.021   5.704 -0.1860 -0.0125 -0.1055
  177POPS   D2A 1833  12.655   5.695   5.380  0.1611 -0.1440  0.0653
  177POPS   C3A 1834  12.342   5.447   5.159  0.0933  0.0062 -0.3655
  177POPS   C4A 1835  11.988   5.625   4.899  0.1665  0.2478  0.0742
  177POPS   C1B 1836  12.971   5.429   5.798  0.2549  0.0927  0.1505
  177POPS   C2B 1837  13.017   5.012   5.757 -0.2067 -0.0154 -0.0289
  177POPS   C3B 1838  13.255   4.807   5.410 -0.0218 -0.1534 -0.1111
  177POPS   C4B 1839  13.272   4.566   5.127  0.0571  0.1718  0.0291
  178CHOL   ROH 1840   4.577  12.607   6.053 -0.0726 -0.0840 -0.1470
  178CHOL    R1 1841   4.421  12.608   5.816  0.0024  0.0948 -0.1969
  178CHOL    R2 1842   4.530  12.558   5.567  0.0301 -0.0203 -0.1663
  178CHOL    R3 1843   4.335  12.369   5.556 -0.1786  0.1933 -0.2283
  178CHOL    R4 1844   4.462  12.360   5.292  0.0133 -0.0734 -0.1237
  178CHOL    R5 1845   4.250  12.384   5.333  0.0087  0.1860 -0.2998
  178CHOL    C1 1846   4.240  12.066   5.122 -0.1924  0.0962 -0.1571
  178CHOL    C2 1847   4.218  12.119   4.822 -0.3540 -0.2902 -0.1874
  179POPS   CNO 1848  11.397   9.672   6.440  0.2144  0.0106 -0.3026
  179POPS   PO4 1849  11.641  10.016   6.356 -0.3952 -0.1649 -0.0573
  179POPS   GL1 1850  11.883   9.940   5.948  0.0404 -0.0425  0.1251
  179POPS   GL2 1851  12.174  10.157   5.819 -0.0017 -0.2282 -0.3469
  179POPS   C1A 1852  11.714   9.674   5.579 -0.2544 -0.1554  0.0447
  179POPS   D2A 1853  11.816   9.539   5.297 -0.1576 -0.1249  0.1324
  179POPS   C3A 1854  11.694   9.623   4.914  0.1654 -0.1994 -0.0890
  179POPS   C4A 1855  11.569   9.398   4.626 -0.0062  0.1777 -0.0624
  179POPS   C1B 1856  11.944  10.378   5.591  0.2385 -0.0460  0.0427
  179POPS   C2B 1857  11.967  10.496   5.185 -0.1854  0.0541  0.2302
  179POPS   C3B 1858  11.854  10.679   4.952 -0.3993 -0.0440 -0.1194
  179POPS   C4B 1859  11.487  10.897   4.802  0.0064  0.4907  0.0815
  180CHOL   ROH 1860  10.058  11.456   5.807  0.3400 -0.1383 -0.0588
  180CHOL    R1 1861   9.965  11.503   5.544  0.2372  0.0254  0.0075
  180CHOL    R2 1862  10.021  11.736   5.406  0.3524  0.0243  0.0585
  180CHOL    R3 1863  10.113  11.564   5.217  0.1103  0.0138 -0.0551
  180CHOL    R4 1864  10.092  11.821   5.079  0.5223  0.1635  0.1297
  180CHOL    R5 1865  10.004  11.632   5.016  0.2328  0.3369 -0.0206
  180CHOL    C1 1866  10.221  11.709   4.711  0.3938  0.2346  0.0644
  180CHOL    C2 1867  10.023  11.772   4.418 -0.1148 -0.1515 -0.1932
  181POPE   NH3 1868   7.103  12.770   6.703  0.1478  0.0697 -0.1645
  181POPE   PO4 1869   7.000  12.408   6.636 -0.2970  0.2297  0.1513
  181POPE   GL1 1870   7.088  12.391   6.295 -0.1221 -0.0189  0.0543
  181POPE   GL2 1871   7.390  12.488   6.260  0.1790  0.3440 -0.0790
  181POPE   C1A 1872   6.969  12.287   5.905  0.2757 -0.0522  0.0186
  181POPE   D2A 1873   6.945  12.385   5.519 -0.1010  0.1836  0.0421
  181POPE   C3A 1874   7.002  12.033   5.201  0.2554  0.1209 -0.1757
  181POPE   C4A 1875   7.314  11.750   5.190 -0.0459 -0.2627  0.1104
  181POPE   C1B 1876   7.417  12.668   5.854  0.1842  0.0201  0.3030
  181POPE   C2B 1877   7.498  12.695   5.409  0.2277  0.1748  0.2714
  181POPE   C3B 1878   7.223  12.537   5.151  0.0146 -0.2195 -0.0781
  181POPE   C4B 1879   6.884  12.473   5.054  0.1823 -0.0618  0.1382
  182POPS   CNO 1880   2.844   6.537   6.864  0.1146 -0.1145 -0.0561
  182POPS   PO4 1881   2.960   6.571   6.463  0.0299 -0.1041  0.0112
  182POPS   GL1 1882   2.931   6.762   6.065 -0.1582 -0.0170 -0.1583
  182POPS   GL2 1883   2.992   6.982   5.918  0.5079 -0.1160 -0.1645
  182POPS   C1A 1884   2.986   6.793   5.478 -0.2350  0.0230  0.3317
  182POPS   D2A 1885   3.040   6.685   5.045  0.0278  0.1678 -0.0205
  182POPS   C3A 1886   2.656   6.793   4.925 -0.0655  0.0404  0.0622
  182POPS   C4A 1887   2.419   7.182   4.832 -0.0782  0.0446 -0.0291
  182POPS   C1B 1888   3.139   7.349   5.594  0.0969 -0.0298  0.1821
  182POPS   C2B 1889   3.260   7.479   5.187 -0.0413 -0.1810 -0.3864
  182POPS   C3B 1890   3.629   7.616   5.055  0.0794 -0.1016  0.2970
  182POPS   C4B 1891   3.808   7.588   4.615  0.0330  0.1183 -0.1012
  183CHOL   ROH 1892   2.995   9.252   5.932 -0.1253  0.0470 -0.0795
  183CHOL    R1 1893   2.984   9.047   5.737 -0.1972  0.0349 -0.0642
  183CHOL    R2 1894   2.888   9.090   5.482 -0.1104  0.0692 -0.0966
  183CHOL    R3 1895   3.128   8.987   5.409 -0.1496 -0.0755 -0.0217
  183CHOL    R4 1896   2.949   8.921   5.187 -0.1070  0.0393 -0.0782
  183CHOL    R5 1897   3.074   8.782   5.298 -0.2311 -0.0370 -0.0446
  183CHOL    C1 1898   3.211   8.725   4.946 -0.1419 -0.1139  0.0028
  183CHOL    C2 1899   3.452   8.451   4.886  0.2294 -0.1010  0.0509
  184POPC   NC3 1900   2.548   4.336   6.597  0.0262  0.1103 -0.2224
  184POPC   PO4 1901   2.900   4.565   6.317 -0.2554  0.0237 -0.1822
  184POPC   GL1 1902   3.294   4.686   6.068  0.1411  0.2331 -0.0281
  184POPC   GL2 1903   3.381   5.009   6.148  0.1930 -0.0197  0.0118
  184POPC   C1A 1904   3.302   4.887   5.707 -0.0396 -0.0515  0.5135
  184POPC   D2A 1905   3.380   5.277   5.409  0.0993  0.0056 -0.1827
  184POPC   C3A 1906   3.218   5.388   5.061  0.0346 -0.0035  0.1857
  184POPC   C4A 1907   3.242   5.435   4.646 -0.0153  0.2030  0.2022
  184POPC   C1B 1908   3.436   5.408   5.908  0.3663  0.1231 -0.1129
  184POPC   C2B 1909   3.779   5.558   5.632 -0.2723  0.3749 -0.5318
  184POPC   C3B 1910   3.839   5.370   5.185  0.1247 -0.0519 -0.1048
  184POPC   C4B 1911   3.701   5.195   4.818 -0.2245 -0.1397  0.3191
  185CHOL   ROH 1912  12.669   8.834   6.165 -0.2977  0.0226 -0.2671
  185CHOL    R1 1913  12.686   8.786   5.886 -0.1905 -0.0708 -0.2450
  185CHOL    R2 1914  12.723   8.988   5.702 -0.1859 -0.1244 -0.3041
  185CHOL    R3 1915  12.934   8.835   5.624 -0.1157 -0.0926 -0.1794
  185CHOL    R4 1916  12.917   9.047   5.422 -0.0170 -0.0827 -0.1803
  185CHOL    R5 1917  12.919   8.832   5.385  0.0347 -0.0819 -0.1901
  185CHOL    C1 1918  13.227   8.937   5.185  0.1472 -0.0285  0.0089
  185CHOL    C2 1919  13.230   9.144   4.926 -0.0203  0.2842  0.0557
  186POSM   NC3 1920   8.549  12.378   6.793 -0.0662  0.2192 -0.0376
  186POSM   PO4 1921   8.823  12.279   6.395 -0.1785  0.1946  0.0576
  186POSM   AM1 1922   8.624  12.676   6.229  0.1924 -0.0093 -0.0182
  186POSM   AM2 1923   8.310  12.551   6.382 -0.2302 -0.0448  0.2440
  186POSM   T1A 1924   8.394  12.934   5.891  0.0597 -0.2451  0.0607
  186POSM   C2A 1925   8.309  13.060   5.548  0.0950 -0.1826 -0.1282
  186POSM   C3A 1926   8.322  13.238   5.123  0.1459 -0.1233 -0.2081
  186POSM   C1B 1927   8.352  12.339   6.005  0.0695  0.1359  0.1260
  186POSM   D2B 1928   8.492  12.479   5.551  0.1665  0.1923 -0.3984
  186POSM   C3B 1929   8.336  12.530   5.293 -0.1345  0.0428 -0.1687
  186POSM   C4B 1930   8.126  12.266   4.975  0.0345  0.1819 -0.2872
  187CHOL   ROH 1931   5.872   2.194   6.524 -0.0285 -0.0339  0.0816
  187CHOL    R1 1932   5.847   2.108   6.256 -0.0298 -0.0986  0.1016
  187CHOL    R2 1933   5.716   2.256   6.063 -0.1213 -0.1907  0.0875
  187CHOL    R3 1934   5.950   2.228   5.928 -0.1262 -0.1184  0.0645
  187CHOL    R4 1935   5.743   2.217   5.721 -0.1476 -0.3383  0.1024
  187CHOL    R5 1936   5.901   2.070   5.756 -0.0582 -0.2286  0.1477
  187CHOL    C1 1937   5.979   2.167   5.395 -0.1676 -0.3564  0.0895
  187CHOL    C2 1938   5.723   2.211   5.144  0.1350 -0.1277 -0.2855
  188CHOL   ROH 1939   6.830  12.846   6.292 -0.1056 -0.1754 -0.0918
  188CHOL    R1 1940   6.993  12.845   6.061 -0.1590 -0.2005 -0.1329
  188CHOL    R2 1941   6.892  12.806   5.807 -0.2764  0.1384 -0.1476
  188CHOL    R3 1942   7.020  13.041   5.755  0.0170  0.0210  0.0229
  188CHOL    R4 1943   6.990  12.913   5.493 -0.3003  0.3273 -0.0912
  188CHOL    R5 1944   7.175  12.987   5.581 -0.1491 -0.0139 -0.1158
  188CHOL    C1 1945   7.166  13.195   5.262 -0.0389  0.3269  0.1017
  188CHOL    C2 1946   7.397  12.983   4.976  0.1948 -0.3460 -0.1943
  189POPC   NC3 1947   9.046  12.740   6.537  0.0191  0.1123  0.0403
  189POPC   PO4 1948   8.861  13.126   6.436  0.2562  0.2615 -0.0439
  189POPC   GL1 1949   9.005  13.002   6.060 -0.2860 -0.0216  0.0352
  189POPC   GL2 1950   9.264  13.284   5.828 -0.1834 -0.1906 -0.0550
  189POPC   C1A 1951   8.828  12.848   5.597 -0.0092  0.0965 -0.0479
  189POPC   D2A 1952   8.738  12.981   5.279  0.0790 -0.0796  0.0470
  189POPC   C3A 1953   8.645  12.643   4.957 -0.1276 -0.0495  0.2084
  189POPC   C4A 1954   8.511  12.387   4.647  0.1970  0.0706  0.1535
  189POPC   C1B 1955   9.293  13.242   5.357  0.1139 -0.0705 -0.1223
  189POPC   C2B 1956   9.376  13.341   4.989 -0.1891  0.2290  0.1888
  189POPC   C3B 1957   9.244  13.382   4.684  0.0950  0.0368  0.2706
  189POPC   C4B 1958   9.021  13.448   4.266  0.0621 -0.0657 -0.2269
  190POPE   NH3 1959  10.909   3.579   6.387  0.0851 -0.0412  0.2461
  190POPE   PO4 1960  10.464   3.591   6.584  0.0157 -0.1787 -0.0276
  190POPE   GL1 1961  10.451   3.517   6.139 -0.3335 -0.3014 -0.1501
  190POPE   GL2 1962  10.748   3.283   6.039  0.1183 -0.1110 -0.1247
  190POPE   C1A 1963  10.234   3.503   5.656 -0.0005  0.0609 -0.3237
  190POPE   D2A 1964  10.285   3.519   5.182 -0.1857 -0.1627  0.0821
  190POPE   C3A 1965  10.520   3.282   4.863  0.2410 -0.2476 -0.1387
  190POPE   C4A 1966  10.319   3.281   4.486  0.2977  0.1939  0.1755
  190POPE   C1B 1967  10.613   3.095   5.680 -0.1033 -0.0680  0.0058
  190POPE   C2B 1968  10.727   2.903   5.383 -0.0395  0.1371 -0.2018
  190POPE   C3B 1969  10.593   2.609   5.059  0.3428  0.1033 -0.0435
  190POPE   C4B 1970  10.329   2.200   4.862 -0.0726  0.3124  0.0030
  191POPE   NH3 1971  10.717  11.106   7.210 -0.0371  0.2296  0.1666
  191POPE   PO4 1972  10.933  11.249   6.830  0.1483 -0.1214 -0.1357
  191POPE   GL1 1973  11.084  11.386   6.393  0.2760  0.4804  0.1709
  191POPE   GL2 1974  11.454  11.451   6.360  0.0367 -0.1222 -0.0394
  191POPE   C1A 1975  11.101  11.526   5.961  0.5750 -0.0182 -0.2695
  191POPE   D2A 1976  11.169  11.624   5.469 -0.2412  0.2887  0.1394
  191POPE   C3A 1977  11.572  11.589   5.316  0.0988  0.1359 -0.1659
  191POPE   C4A 1978  11.932  11.820   5.350  0.1268 -0.3146  0.1722
  191POPE   C1B 1979  11.607  11.486   5.963 -0.1237 -0.1473  0.1882
  191POPE   C2B 1980  11.929  11.375   5.623  0.3561  0.0308 -0.1049
  191POPE   C3B 1981  12.316  11.386   5.416  0.2688 -0.2311  0.0336
  191POPE   C4B 1982  12.390  11.627   5.069  0.2746 -0.0298 -0.2611
  192POPS   CNO 1983   9.974   3.498   6.222  0.0401  0.0383  0.1309
  192POPS   PO4 1984   9.960   3.174   6.485  0.1163 -0.0152  0.1014
  192POPS   GL1 1985   9.979   2.988   6.182  0.1754  0.1604  0.1319
  192POPS   GL2 1986  10.218   3.128   5.979 -0.0188 -0.0069  0.0128
  192POPS   C1A 1987   9.766   2.772   5.789 -0.1502  0.0228  0.1675
  192POPS   D2A 1988   9.749   2.779   5.341  0.0483  0.0453  0.0420
  192POPS   C3A 1989   9.518   2.987   4.974  0.0064  0.1142  0.1982
  192POPS   C4A 1990   9.382   3.166   4.639  0.0041  0.0960 -0.2053
  192POPS   C1B 1991  10.160   3.005   5.518 -0.0440  0.0721  0.1592
  192POPS   C2B 1992  10.189   3.052   5.144  0.1705 -0.0358 -0.2221
  192POPS   C3B 1993  10.034   2.746   4.797 -0.1267  0.1693  0.2824
  192POPS   C4B 1994   9.647   2.572   4.655  0.3630  0.1019 -0.1903
  193POPC   NC3 1995  12.863   6.058   6.836 -0.2596  0.1040  0.2170
  193POPC   PO4 1996  12.752   6.445   6.742  0.0590 -0.3680  0.1254
  193POPC   GL1 1997  12.873   6.378   6.367  0.1515  0.1553 -0.2402
  193POPC   GL2 1998  13.148   6.465   6.183 -0.2609  0.0008 -0.1966
  193POPC   C1A 1999  12.753   6.269   6.015 -0.2773 -0.3659 -0.0076
  193POPC   D2A 2000  12.780   6.405   5.546  0.0213 -0.1815 -0.1552
  193POPC   C3A 2001  12.518   6.210   5.215  0.2075 -0.2036  0.1246
  193POPC   C4A 2002  12.470   5.829   4.922 -0.2370 -0.0497 -0.4628
  193POPC   C1B 2003  13.153   6.567   5.762  0.0256  0.2480 -0.0127
  193POPC   C2B 2004  13.153   6.617   5.375 -0.1401  0.2585  0.1268
  193POPC   C3B 2005  13.215   6.569   4.979  0.0187  0.1631 -0.1171
  193POPC   C4B 2006  13.406   6.541   4.571 -0.0971  0.2074 -0.0036
  194CHOL   ROH 2007   4.916  12.876   6.182  0.0573  0.1584 -0.0765
  194CHOL    R1 2008   5.037  12.783   5.944 -0.0199  0.0078 -0.0575
  194CHOL    R2 2009   4.895  12.742   5.710 -0.0541  0.0885 -0.0535
  194CHOL    R3 2010   5.084  12.906   5.605  0.0925 -0.0935 -0.0797
  194CHOL    R4 2011   4.982  12.755   5.376 -0.3062  0.2220 -0.1162
  194CHOL    R5 2012   5.190  12.775   5.436 -0.2272 -0.1157 -0.2679
  194CHOL    C1 2013   5.210  12.917   5.083 -0.3154  0.1289 -0.1773
  194CHOL    C2 2014   5.348  12.859   4.815  0.4501  0.1751 -0.3078
  195POPC   NC3 2015   2.221   9.229   6.309 -0.2566  0.0834 -0.2114
  195POPC   PO4 2016   2.616   9.227   6.205 -0.0047  0.2529 -0.1157
  195POPC   GL1 2017   2.510   9.107   5.823 -0.1059  0.1618  0.0707
  195POPC   GL2 2018   2.136   8.965   5.900 -0.1829 -0.0867 -0.1503
  195POPC   C1A 2019   2.439   9.100   5.349  0.0132 -0.0372  0.0321
  195POPC   D2A 2020   2.306   9.074   4.992 -0.1009 -0.1436  0.0712
  195POPC   C3A 2021   2.211   9.183   4.615 -0.0473 -0.0157  0.0509
  195POPC   C4A 2022   2.091   9.135   4.232  0.1808  0.2776 -0.1506
  195POPC   C1B 2023   2.228   8.745   5.610 -0.0069  0.2920 -0.1001
  195POPC   C2B 2024   2.584   8.604   5.361  0.1106 -0.4523  0.0006
  195POPC   C3B 2025   2.787   8.402   4.903 -0.1537  0.1084  0.0409
  195POPC   C4B 2026   2.933   7.984   4.726 -0.2177  0.0548  0.1887
  196POSM   NC3 2027   2.012   6.749   6.637 -0.2551  0.3849 -0.2256
  196POSM   PO4 2028   2.137   7.202   6.723  0.0358  0.0457  0.1688
  196POSM   AM1 2029   2.292   7.306   6.348 -0.0554  0.0366  0.1269
  196POSM   AM2 2030   2.623   7.231   6.200 -0.1437  0.1325 -0.0118
  196POSM   T1A 2031   2.274   7.647   6.124 -0.1186  0.0427 -0.2831
  196POSM   C2A 2032   2.302   7.742   5.675 -0.0009  0.1505  0.1343
  196POSM   C3A 2033   2.529   7.509   5.423 -0.1144 -0.1805  0.0920
  196POSM   C1B 2034   2.796   7.523   5.886  0.0637 -0.2250 -0.0960
  196POSM   D2B 2035   2.755   8.049   5.837 -0.3164 -0.3088  0.2870
  196POSM   C3B 2036   2.519   8.177   5.576 -0.1146  0.1792 -0.0191
  196POSM   C4B 2037   2.179   8.021   5.135 -0.0087  0.1657 -0.1481
  197CHOL   ROH 2038  12.669   7.466   5.983  0.2748 -0.1485 -0.0566
  197CHOL    R1 2039  12.800   7.365   5.753  0.1671 -0.0890 -0.1472
  197CHOL    R2 2040  12.678   7.353   5.505  0.0312 -0.0647 -0.0894
  197CHOL    R3 2041  12.897   7.493   5.427 -0.0329 -0.0123 -0.1763
  197CHOL    R4 2042  12.781   7.393   5.178 -0.0253 -0.1409 -0.1159
  197CHOL    R5 2043  12.987   7.367   5.244 -0.0106 -0.0394 -0.1411
  197CHOL    C1 2044  13.046   7.548   4.913 -0.1183 -0.1361 -0.2130
  197CHOL    C2 2045  12.979   7.763   4.509  0.0797 -0.0553  0.3677
  198POSM   NC3 2046   6.271  13.473   7.094  0.1426 -0.1352  0.1521
  198POSM   PO4 2047   6.153  13.442   6.641  0.1044 -0.2423  0.0082
  198POSM   AM1 2048   6.398  13.278   6.369 -0.0060  0.2818  0.0662
  198POSM   AM2 2049   6.372  13.042   6.434  0.2333 -0.0773  0.5445
  198POSM   T1A 2050   6.556  13.201   5.971 -0.0978  0.2842 -0.1181
  198POSM   C2A 2051   6.540  13.027   5.443 -0.4806  0.0627  0.0946
  198POSM   C3A 2052   6.765  12.971   5.085  0.2605  0.1585 -0.0172
  198POSM   C1B 2053   6.122  12.936   6.091  0.1172  0.0135 -0.0117
  198POSM   D2B 2054   6.153  12.842   5.763  0.1864  0.2095  0.1027
  198POSM   C3B 2055   6.071  12.923   5.351  0.1973 -0.0471  0.1024
  198POSM   C4B 2056   6.279  13.043   5.014 -0.1913 -0.1572  0.2344
  199POSM   NC3 2057   3.517   4.241   6.878 -0.0929  0.3898 -0.1342
  199POSM   PO4 2058   3.536   4.632   6.563 -0.1945 -0.3778 -0.0109
  199POSM   AM1 2059   3.577   4.360   6.345  0.1958 -0.0726 -0.5637
  199POSM   AM2 2060   3.256   4.185   6.200 -0.1295  0.3048 -0.0370
  199POSM   T1A 2061   3.682   4.414   5.870  0.1265  0.2153 -0.0756
  199POSM   C2A 2062   3.881   4.581   5.511  0.2071 -0.1392  0.0447
  199POSM   C3A 2063   3.961   4.802   5.131 -0.1754  0.1459  0.2090
  199POSM   C1B 2064   3.490   3.972   5.886 -0.1641 -0.0226  0.1924
  199POSM   D2B 2065   3.642   3.795   5.571  0.2524 -0.1552  0.3421
  199POSM   C3B 2066   3.622   3.793   5.172  0.0489  0.0713  0.0405
  199POSM   C4B 2067   3.675   3.758   4.786 -0.2098  0.3438 -0.0361
  200POPE   NH3 2068   4.496   2.815   6.865  0.1571  0.1661  0.0569
  200POPE   PO4 2069   4.141   3.126   6.751  0.2831  0.1185 -0.0852
  200POPE   GL1 2070   4.117   3.184   6.297 -0.0445  0.2570 -0.1260
  200POPE   GL2 2071   3.781   3.034   6.197 -0.0422 -0.0729 -0.0173
  200POPE   C1A 2072   4.177   2.978   5.931 -0.0114 -0.1153 -0.0154
  200POPE   D2A 2073   4.239   2.705   5.595  0.1799 -0.3155  0.3504
  200POPE   C3A 2074   4.356   2.802   5.290  0.1013 -0.0282 -0.0115
  200POPE   C4A 2075   4.494   2.694   4.887 -0.1327 -0.2750  0.0341
  200POPE   C1B 2076   3.601   2.924   5.871  0.0184 -0.2736  0.1828
  200POPE   C2B 2077   3.692   3.035   5.523 -0.0424  0.2245 -0.3199
  200POPE   C3B 2078   3.902   2.861   5.189 -0.0897  0.0206  0.2129
  200POPE   C4B 2079   3.883   2.874   4.713 -0.2633 -0.0866 -0.2126
  201POPC   NC3 2080  10.815  11.723   6.674 -0.0303  0.1428  0.0028
  201POPC   PO4 2081  10.550  11.453   6.469  0.4587 -0.1832  0.0233
  201POPC   GL1 2082  10.628  11.581   6.186 -0.1188  0.2363 -0.1356
  201POPC   GL2 2083  10.228  11.714   6.131  0.2700 -0.2139 -0.1928
  201POPC   C1A 2084  10.620  11.411   5.851 -0.1735 -0.0090 -0.0416
  201POPC   D2A 2085  10.531  11.577   5.543  0.2558  0.2201  0.2526
  201POPC   C3A 2086  10.646  11.575   5.180 -0.0980  0.0601 -0.0402
  201POPC   C4A 2087  11.031  11.772   4.962 -0.2814  0.2852 -0.1775
  201POPC   C1B 2088  10.328  11.957   5.792  0.0288 -0.1794 -0.1802
  201POPC   C2B 2089  10.536  12.388   5.717 -0.3995 -0.3124  0.0131
  201POPC   C3B 2090  10.559  12.669   5.291 -0.0424  0.1259 -0.4060
  201POPC   C4B 2091  10.160  12.877   5.203  0.0833 -0.1141  0.3422
  202POPE   NH3 2092  12.329   4.758   6.464  0.1764  0.0034 -0.2156
  202POPE   PO4 2093  11.887   4.522   6.443  0.0047  0.0648 -0.2701
  202POPE   GL1 2094  12.119   4.281   6.200  0.3962 -0.2335  0.2102
  202POPE   GL2 2095  12.471   4.392   6.158  0.1904  0.1438  0.2156
  202POPE   C1A 2096  12.053   4.009   5.988 -0.3854 -0.0501  0.2377
  202POPE   D2A 2097  11.803   3.905   5.638 -0.0584  0.0098  0.0125
  202POPE   C3A 2098  11.676   3.920   5.244  0.3285  0.0769  0.1537
  202POPE   C4A 2099  11.815   3.808   4.812 -0.1510 -0.1693 -0.1510
  202POPE   C1B 2100  12.543   4.033   5.892 -0.0182  0.1315  0.1019
  202POPE   C2B 2101  12.636   4.010   5.424 -0.0599 -0.0846 -0.0231
  202POPE   C3B 2102  12.721   3.974   4.928 -0.3124 -0.2440 -0.0333
  202POPE   C4B 2103  12.667   4.189   4.585  0.0444  0.0457 -0.2856
  203CHOL   ROH 2104  12.410   4.737   5.832 -0.0355 -0.0173 -0.0199
  203CHOL    R1 2105  12.449   4.761   5.552 -0.1090 -0.0930 -0.0370
  203CHOL    R2 2106  12.258   4.684   5.368 -0.2605  0.0913  0.0426
  203CHOL    R3 2107  12.289   4.938   5.278 -0.0168  0.0493 -0.0007
  203CHOL    R4 2108  12.178   4.792   5.050 -0.2201  0.1238  0.0431
  203CHOL    R5 2109  12.359   4.913   5.050 -0.0909 -0.0601 -0.0144
  203CHOL    C1 2110  12.160   5.094   4.780  0.0321  0.1033  0.0026
  203CHOL    C2 2111  12.374   5.383   4.619 -0.0765 -0.2324 -0.0432
  204CHOL   ROH 2112  11.237  10.908   6.343  0.0434 -0.2016  0.0208
  204CHOL    R1 2113  11.344  11.046   6.120  0.1366 -0.1608  0.0891
  204CHOL    R2 2114  11.497  10.921   5.927 -0.0678 -0.2026 -0.0508
  204CHOL    R3 2115  11.313  11.028   5.758 -0.0009  0.1397  0.0837
  204CHOL    R4 2116  11.548  10.977   5.590 -0.2002 -0.2599 -0.0811
  204CHOL    R5 2117  11.442  11.166   5.610  0.1438 -0.0691  0.0102
  204CHOL    C1 2118  11.406  11.109   5.234 -0.2145  0.0281  0.0275
  204CHOL    C2 2119  11.343  11.341   4.960 -0.1769 -0.0884 -0.1552
  205CHOL   ROH 2120   2.897  12.177   6.228  0.0174  0.0238  0.1036
  205CHOL    R1 2121   2.980  12.046   5.992 -0.0092  0.1017  0.0505
  205CHOL    R2 2122   2.854  12.083   5.748 -0.1060  0.0976  0.1004
  205CHOL    R3 2123   3.105  12.144   5.664 -0.1583  0.2141  0.0264
  205CHOL    R4 2124   2.940  12.155   5.422 -0.2009 -0.0588  0.0393
  205CHOL    R5 2125   3.123  12.039   5.450 -0.1162  0.0831  0.0917
  205CHOL    C1 2126   3.226  12.255   5.153 -0.3054 -0.0405 -0.0657
  205CHOL    C2 2127   3.357  12.276   4.825  0.0125  0.2614 -0.1173
  206CHOL   ROH 2128   2.849   6.144   5.994 -0.0949  0.4037  0.1622
  206CHOL    R1 2129   2.800   6.315   5.773  0.0388  0.3080  0.0560
  206CHOL    R2 2130   2.898   6.263   5.520  0.0151  0.0855  0.0893
  206CHOL    R3 2131   2.637   6.287   5.449  0.0359  0.2294  0.0630
  206CHOL    R4 2132   2.778   6.234   5.197  0.0129 -0.0705  0.1046
  206CHOL    R5 2133   2.643   6.401   5.238  0.1348  0.0658 -0.0253
  206CHOL    C1 2134   2.463   6.240   4.943  0.0310 -0.0263  0.0887
  206CHOL    C2 2135   2.393   6.429   4.609  0.1380 -0.2070 -0.1003
  207POPE   NH3 2136   6.979   1.506   6.612  0.0725  0.2920 -0.0401
  207POPE   PO4 2137   7.319   1.717   6.541  0.0530 -0.0112 -0.3004
  207POPE   GL1 2138   7.189   1.763   6.198  0.0437  0.2579  0.1031
  207POPE   GL2 2139   6.915   1.712   6.152 -0.1143 -0.0275 -0.0182
  207POPE   C1A 2140   7.237   1.835   5.710 -0.2228  0.0278  0.0468
  207POPE   D2A 2141   6.901   1.944   5.363  0.3324 -0.2291 -0.4008
  207POPE   C3A 2142   6.887   2.190   4.975  0.1086  0.2363  0.2005
  207POPE   C4A 2143   6.939   2.706   4.752 -0.2322  0.1940 -0.0651
  207POPE   C1B 2144   6.756   1.855   5.872  0.1241  0.3321  0.0952
  207POPE   C2B 2145   6.382   1.901   5.644  0.1689 -0.1690 -0.1395
  207POPE   C3B 2146   6.012   1.696   5.467  0.0774  0.1203 -0.4938
  207POPE   C4B 2147   5.505   1.847   5.412 -0.1073  0.1911  0.1317
  208POPC   NC3 2148   1.253   6.379   6.349 -0.2394  0.2281  0.0870
  208POPC   PO4 2149   1.621   6.655   6.415  0.0810 -0.0715 -0.0432
  208POPC   GL1 2150   1.778   6.610   6.054  0.1099 -0.4220 -0.0917
  208POPC   GL2 2151   1.585   6.453   5.981  0.1830  0.0477  0.2307
  208POPC   C1A 2152   2.073   6.578   5.692  0.0793  0.3142 -0.2817
  208POPC   D2A 2153   2.220   6.589   5.228  0.0104 -0.0023  0.2967
  208POPC   C3A 2154   1.926   6.406   4.907  0.0231 -0.0086  0.0275
  208POPC   C4A 2155   1.921   6.333   4.453  0.1778  0.2253 -0.3176
  208POPC   C1B 2156   1.270   6.617   5.686  0.1053 -0.0613  0.1634
  208POPC   C2B 2157   1.204   6.719   5.245  0.0822  0.0159  0.1896
  208POPC   C3B 2158   1.332   7.069   4.978  0.2001 -0.1834 -0.3723
  208POPC   C4B 2159   1.127   7.484   4.873 -0.1055 -0.0805  0.1248
  209POPE   NH3 2160  11.419   2.592   6.430  0.2430 -0.0104  0.0523
  209POPE   PO4 2161  11.853   2.633   6.484 -0.1554  0.1441 -0.1062
  209POPE   GL1 2162  11.821   2.718   6.101  0.1485  0.1860 -0.4387
  209POPE   GL2 2163  11.935   3.018   5.980  0.2305 -0.1373 -0.1856
  209POPE   C1A 2164  11.898   2.627   5.613  0.1727 -0.0166 -0.1628
  209POPE   D2A 2165  12.019   2.680   5.227 -0.0142 -0.1119  0.2115
  209POPE   C3A 2166  12.051   2.980   5.033  0.0465 -0.0459  0.1654
  209POPE   C4A 2167  11.866   3.438   5.229 -0.3003  0.1479 -0.2362
  209POPE   C1B 2168  12.149   3.112   5.592 -0.0188 -0.2371  0.1748
  209POPE   C2B 2169  12.361   3.251   5.201 -0.1684 -0.0656 -0.0342
  209POPE   C3B 2170  12.525   3.294   4.739  0.0147  0.0156 -0.0336
  209POPE   C4B 2171  12.538   2.974   4.400 -0.1677  0.0223  0.1930
  210POSM   NC3 2172   3.702  11.997   6.832  0.3448 -0.1427  0.0637
  210POSM   PO4 2173   3.751  11.688   6.446  0.2230  0.2048 -0.0980
  210POSM   AM1 2174   3.503  11.634   6.137  0.0291 -0.3366 -0.1442
  210POSM   AM2 2175   3.170  11.718   6.251 -0.0438 -0.1478 -0.0832
  210POSM   T1A 2176   3.404  11.785   5.738 -0.0663  0.1390 -0.3159
  210POSM   C2A 2177   3.200  11.595   5.325  0.0405 -0.1193 -0.0969
  210POSM   C3A 2178   3.259  11.377   5.039  0.1570  0.1085  0.1918
  210POSM   C1B 2179   2.873  11.586   5.829 -0.3399 -0.1932 -0.2638
  210POSM   D2B 2180   2.737  11.684   5.361  0.1332  0.0292  0.0387
  210POSM   C3B 2181   2.623  11.327   5.008 -0.1194 -0.0311  0.3135
  210POSM   C4B 2182   2.414  11.099   4.747 -0.1742  0.1089 -0.1389
  211POPE   NH3 2183   6.138   1.549   7.115  0.0444  0.0922  0.0485
  211POPE   PO4 2184   6.350   1.165   6.959 -0.1154 -0.1226  0.1007
  211POPE   GL1 2185   6.249   1.124   6.510  0.0866 -0.0961  0.0840
  211POPE   GL2 2186   6.513   1.482   6.369 -0.1183  0.0353  0.2736
  211POPE   C1A 2187   6.078   1.172   6.157 -0.0633  0.0134 -0.1517
  211POPE   D2A 2188   6.030   1.241   5.764  0.0706  0.1818  0.0763
  211POPE   C3A 2189   6.159   1.212   5.446 -0.0944 -0.2574 -0.1762
  211POPE   C4A 2190   6.296   1.422   5.038  0.1053  0.0687  0.1514
  211POPE   C1B 2191   6.473   1.426   5.862 -0.0401 -0.0140  0.0799
  211POPE   C2B 2192   6.562   1.504   5.415 -0.0603  0.0349  0.5013
  211POPE   C3B 2193   6.775   1.629   5.019  0.1719 -0.3205  0.0633
  211POPE   C4B 2194   6.742   1.564   4.610  0.0372  0.0379  0.0634
  212CHOL   ROH 2195  13.684   5.311   6.114  0.1595 -0.2459 -0.0152
  212CHOL    R1 2196  13.718   5.147   5.886 -0.1388 -0.2791 -0.0395
  212CHOL    R2 2197  13.539   5.145   5.676 -0.1734  0.0478 -0.0230
  212CHOL    R3 2198  13.761   5.198   5.528 -0.0937 -0.2999 -0.0381
  212CHOL    R4 2199  13.548   5.163   5.331 -0.2071  0.2180 -0.0156
  212CHOL    R5 2200  13.739   5.059   5.335 -0.4017 -0.1569 -0.1099
  212CHOL    C1 2201  13.761   5.224   4.992 -0.1520 -0.0093 -0.0255
  212CHOL    C2 2202  13.834   5.281   4.676  0.0796 -0.1969 -0.1490
  213POPS   CNO 2203   8.530   1.847   6.370  0.0147 -0.0538 -0.2143
  213POPS   PO4 2204   8.402   1.431   6.488  0.1198  0.0009 -0.1642
  213POPS   GL1 2205   8.257   1.481   6.149 -0.0593 -0.0806  0.1430
  213POPS   GL2 2206   8.000   1.576   6.104  0.3203 -0.1445  0.1095
  213POPS   C1A 2207   8.333   1.719   5.771  0.1038  0.0522  0.3438
  213POPS   D2A 2208   8.184   2.014   5.507  0.1846 -0.0676  0.2045
  213POPS   C3A 2209   8.463   2.167   5.054 -0.0543 -0.0968 -0.1349
  213POPS   C4A 2210   8.831   2.300   4.839  0.0452 -0.0166 -0.1360
  213POPS   C1B 2211   7.784   1.811   5.747  0.0804  0.5197 -0.1619
  213POPS   C2B 2212   7.705   1.991   5.346  0.2017  0.2956 -0.1511
  213POPS   C3B 2213   7.939   2.130   4.970 -0.0507 -0.1393 -0.2964
  213POPS   C4B 2214   8.178   2.253   4.658  0.0570 -0.1687  0.0050
  214POPC   NC3 2215   4.286  12.606   7.083  0.0659  0.3515  0.2036
  214POPC   PO4 2216   4.648  12.922   6.798  0.0961  0.0565  0.2376
  214POPC   GL1 2217   4.212  12.924   6.655  0.4383 -0.3791 -0.0555
  214POPC   GL2 2218   3.950  13.116   6.649 -0.0761  0.1142 -0.2644
  214POPC   C1A 2219   4.117  12.627   6.296 -0.0830  0.1757  0.0712
  214POPC   D2A 2220   3.833  12.706   5.907  0.0844 -0.2038 -0.0369
  214POPC   C3A 2221   3.908  12.718   5.443 -0.3464 -0.0568  0.1375
  214POPC   C4A 2222   3.816  12.987   5.098 -0.0553 -0.0504  0.2973
  214POPC   C1B 2223   3.992  13.090   6.180  0.0156  0.1034  0.1339
  214POPC   C2B 2224   4.145  13.073   5.753 -0.0382 -0.4640 -0.0803
  214POPC   C3B 2225   4.197  13.266   5.338  0.3751  0.1651 -0.0871
  214POPC   C4B 2226   4.274  13.372   4.902 -0.2772 -0.1609 -0.0207
  215CHOL   ROH 2227  10.464   2.640   6.062  0.0912 -0.1315  0.0394
  215CHOL    R1 2228  10.414   2.655   5.783  0.1309  0.0147  0.0372
  215CHOL    R2 2229  10.439   2.436   5.616  0.0249  0.0647 -0.0577
  215CHOL    R3 2230  10.184   2.501   5.548  0.0682  0.2421 -0.0497
  215CHOL    R4 2231  10.282   2.344   5.322  0.0334  0.4217 -0.1776
  215CHOL    R5 2232  10.192   2.541   5.312  0.1263  0.4652 -0.0060
  215CHOL    C1 2233   9.951   2.350   5.087  0.0790  0.7960 -0.2400
  215CHOL    C2 2234   9.720   2.112   4.843 -0.2203  0.1702 -0.0424
  216POPE   NH3 2235   2.709   6.142   6.494 -0.0968  0.3679 -0.2391
  216POPE   PO4 2236   2.338   6.361   6.715 -0.2756  0.0615  0.2053
  216POPE   GL1 2237   2.503   6.560   6.188  0.0636  0.0784  0.2198
  216POPE   GL2 2238   2.316   6.755   6.121 -0.0371  0.1380  0.2744
  216POPE   C1A 2239   2.532   6.751   5.697 -0.3354  0.2457 -0.0955
  216POPE   D2A 2240   2.458   7.002   5.401  0.0544 -0.0479  0.0555
  216POPE   C3A 2241   2.801   7.150   5.220  0.2656  0.0084  0.0807
  216POPE   C4A 2242   2.869   7.328   4.893 -0.2930  0.1348  0.2394
  216POPE   C1B 2243   2.207   7.177   5.813 -0.3826 -0.1152  0.2379
  216POPE   C2B 2244   2.043   7.359   5.520  0.2066 -0.3324 -0.1005
  216POPE   C3B 2245   1.861   7.761   5.488 -0.0423  0.0216  0.1730
  216POPE   C4B 2246   1.676   8.046   5.147 -0.3358  0.1974  0.0411
  217POSM   NC3 2247   3.162   4.931   6.693 -0.2705 -0.2405 -0.2485
  217POSM   PO4 2248   2.806   5.223   6.591  0.1352 -0.0525 -0.0664
  217POSM   AM1 2249   2.906   5.124   6.144  0.3141  0.2221  0.1702
  217POSM   AM2 2250   2.749   4.935   6.011  0.2349  0.0897  0.3383
  217POSM   T1A 2251   2.963   5.273   5.715 -0.1311 -0.0854  0.4592
  217POSM   C2A 2252   2.816   5.236   5.237  0.0183 -0.0911  0.0566
  217POSM   C3A 2253   2.569   4.905   4.984  0.1169  0.0051 -0.0327
  217POSM   C1B 2254   2.850   4.806   5.505 -0.1748 -0.0946  0.2050
  217POSM   D2B 2255   3.019   4.725   5.191 -0.1118  0.4337  0.0025
  217POSM   C3B 2256   3.055   4.932   4.872 -0.0595  0.0936  0.0838
  217POSM   C4B 2257   2.810   5.197   4.572  0.2756  0.1789 -0.1037
  218POPE   NH3 2258  12.766  11.484   6.956 -0.0930  0.1078  0.0603
  218POPE   PO4 2259  12.685  11.236   6.497  0.1285 -0.2087 -0.2256
  218POPE   GL1 2260  12.735  10.957   6.171 -0.0288  0.3168  0.2716
  218POPE   GL2 2261  12.557  10.644   6.146 -0.2793 -0.0354  0.0628
  218POPE   C1A 2262  13.026  10.831   5.896 -0.2023  0.2121 -0.2965
  218POPE   D2A 2263  13.306  10.967   5.718  0.1934  0.3393 -0.2207
  218POPE   C3A 2264  13.411  10.975   5.389 -0.1088 -0.3768 -0.0197
  218POPE   C4A 2265  13.266  10.929   4.896  0.0027  0.1112  0.2525
  218POPE   C1B 2266  12.496  10.514   5.747  0.0481 -0.0782 -0.2151
  218POPE   C2B 2267  12.437  10.610   5.313  0.0916  0.0447  0.2400
  218POPE   C3B 2268  12.410  10.945   5.096 -0.1627  0.0072 -0.4396
  218POPE   C4B 2269  12.316  11.247   4.731 -0.1681  0.0632 -0.0347
  219POPC   NC3 2270   3.718  11.077   6.728 -0.1164 -0.2081 -0.0724
  219POPC   PO4 2271   3.273  10.933   6.459 -0.0639  0.0871  0.0727
  219POPC   GL1 2272   2.960  10.742   6.148  0.0930  0.0784 -0.1275
  219POPC   GL2 2273   2.944  10.388   6.140 -0.3277  0.3657 -0.0494
  219POPC   C1A 2274   2.889  10.623   5.657 -0.0443  0.4189 -0.0290
  219POPC   D2A 2275   3.030  10.438   5.214 -0.1217  0.0586 -0.3881
  219POPC   C3A 2276   2.801  10.324   4.832 -0.0131  0.0541  0.1789
  219POPC   C4A 2277   2.743  10.138   4.546 -0.2612  0.0310 -0.1604
  219POPC   C1B 2278   3.216  10.305   5.705 -0.1145 -0.0566 -0.1667
  219POPC   C2B 2279   3.317  10.053   5.335 -0.0767  0.1323  0.2001
  219POPC   C3B 2280   3.402   9.781   4.907 -0.3547  0.0938  0.0727
  219POPC   C4B 2281   3.273   9.619   4.490  0.2431  0.0444 -0.0428
  220POPE   NH3 2282  13.450   8.164   6.539  0.3708  0.1365 -0.0934
  220POPE   PO4 2283  13.358   7.676   6.512 -0.2893 -0.1525 -0.0858
  220POPE   GL1 2284  13.148   7.531   6.138 -0.0388 -0.0231 -0.2851
  220POPE   GL2 2285  13.389   7.310   6.109  0.1579  0.2322  0.0252
  220POPE   C1A 2286  13.297   7.553   5.715 -0.1271 -0.0241  0.0537
  220POPE   D2A 2287  13.382   7.726   5.238  0.2117  0.1067 -0.1045
  220POPE   C3A 2288  13.538   7.458   5.052  0.1489  0.3029  0.2345
  220POPE   C4A 2289  13.790   7.276   4.816  0.2269 -0.1569  0.2387
  220POPE   C1B 2290  13.643   6.890   5.876 -0.1683  0.2913 -0.0835
  220POPE   C2B 2291  13.725   6.720   5.532  0.1501 -0.1659 -0.2464
  220POPE   C3B 2292  13.669   6.489   5.199 -0.3629  0.0026 -0.1436
  220POPE   C4B 2293  13.598   6.091   4.823  0.0807 -0.5493 -0.0409
  221POPS   CNO 2294  11.580  10.415   6.003  0.0924 -0.2166  0.2080
  221POPS   PO4 2295  11.711  10.539   6.296  0.2909  0.2269  0.2018
  221POPS   GL1 2296  12.028  10.664   5.986  0.0807  0.0484 -0.1110
  221POPS   GL2 2297  12.167  11.027   6.039 -0.1835  0.0533 -0.2996
  221POPS   C1A 2298  12.047  10.871   5.530 -0.3038  0.0125  0.0402
  221POPS   D2A 2299  11.907  11.117   5.159 -0.1838 -0.0168 -0.0626
  221POPS   C3A 2300  11.868  11.436   4.796 -0.0112  0.1601  0.3291
  221POPS   C4A 2301  11.846  11.508   4.405  0.2831  0.0986 -0.1840
  221POPS   C1B 2302  12.486  10.991   5.720  0.1197  0.0755  0.1269
  221POPS   C2B 2303  12.818  10.911   5.416 -0.0589  0.0128  0.0293
  221POPS   C3B 2304  12.884  11.146   5.136 -0.1632 -0.2691  0.0014
  221POPS   C4B 2305  12.752  11.479   4.712 -0.0148 -0.0491 -0.0634
  222POPE   NH3 2306   5.377   2.235   6.725 -0.2092  0.0592 -0.0094
  222POPE   PO4 2307   5.065   2.508   6.524  0.2285 -0.3693 -0.1199
  222POPE   GL1 2308   5.384   2.699   6.312  0.1208  0.1074 -0.0455
  222POPE   GL2 2309   5.604   2.999   6.183 -0.0695 -0.0419  0.1938
  222POPE   C1A 2310   5.419   2.671   5.896 -0.2566 -0.0776  0.2812
  222POPE   D2A 2311   5.549   2.583   5.443 -0.1043 -0.0671 -0.0071
  222POPE   C3A 2312   5.623   2.662   5.037  0.2213  0.0554  0.0244
  222POPE   C4A 2313   5.926   2.906   4.771 -0.1939  0.0196  0.2529
  222POPE   C1B 2314   5.767   3.067   5.689  0.0739 -0.1284 -0.3574
  222POPE   C2B 2315   5.735   3.122   5.267  0.1562 -0.0248 -0.0784
  222POPE   C3B 2316   5.882   3.399   4.927 -0.2392  0.0077  0.0995
  222POPE   C4B 2317   5.988   3.824   4.778  0.2064  0.0603 -0.3038
  223CHOL   ROH 2318   6.026  13.488   6.132 -0.2650 -0.2505 -0.0400
  223CHOL    R1 2319   6.149  13.558   5.887 -0.0830 -0.2235  0.0575
  223CHOL    R2 2320   6.188  13.376   5.683 -0.0745 -0.1650  0.0050
  223CHOL    R3 2321   6.055  13.563   5.536  0.1188 -0.0258  0.0037
  223CHOL    R4 2322   6.184  13.389   5.337 -0.1480 -0.2285  0.0033
  223CHOL    R5 2323   6.200  13.606   5.350  0.1272 -0.2436 -0.0429
  223CHOL    C1 2324   6.058  13.572   4.998 -0.0093 -0.1348  0.0012
  223CHOL    C2 2325   5.856  13.633   4.641  0.1596  0.3668 -0.0069
  224POSM   NC3 2326   2.616   8.287   6.304 -0.0482  0.1313 -0.1711
  224POSM   PO4 2327   2.284   8.097   6.325  0.2036  0.1203  0.0570
  224POSM   AM1 2328   2.074   8.212   5.984  0.1267 -0.0293  0.0312
  224POSM   AM2 2329   1.831   8.484   5.947  0.2485 -0.0949 -0.0392
  224POSM   T1A 2330   2.029   8.238   5.583 -0.0878  0.0310  0.2731
  224POSM   C2A 2331   2.105   8.525   5.193 -0.4045 -0.0228 -0.0754
  224POSM   C3A 2332   2.320   8.570   4.776  0.0187 -0.3897 -0.1490
  224POSM   C1B 2333   1.684   8.802   5.674 -0.0041  0.0762 -0.3111
  224POSM   D2B 2334   1.888   9.125   5.388 -0.1269  0.0494 -0.2821
  224POSM   C3B 2335   1.843   9.021   5.006  0.0970  0.0473  0.1175
  224POSM   C4B 2336   1.578   8.967   4.693 -0.0800  0.0753  0.0626
  225POSM   NC3 2337  13.056   8.541   7.025  0.1048  0.0964  0.0413
  225POSM   PO4 2338  13.191   9.016   6.874 -0.1930  0.0278 -0.1298
  225POSM   AM1 2339  13.368   9.249   6.459 -0.0394  0.0280 -0.1770
  225POSM   AM2 2340  13.109   9.197   6.271 -0.1766  0.0072  0.0543
  225POSM   T1A 2341  13.519   9.506   6.147 -0.1742 -0.1141 -0.1252
  225POSM   C2A 2342  13.352   9.691   5.802  0.0636 -0.1509 -0.3849
  225POSM   C3A 2343  13.319   9.980   5.425  0.1304  0.1257  0.0313
  225POSM   C1B 2344  13.098   9.286   5.813 -0.0227  0.0757  0.2325
  225POSM   D2B 2345  13.430   9.359   5.422 -0.1482  0.0352  0.4296
  225POSM   C3B 2346  13.303   9.659   5.017 -0.0407  0.4591  0.0022
  225POSM   C4B 2347  13.271  10.131   4.891  0.0935  0.1215 -0.1951
  226POPE   NH3 2348  10.447   3.087   6.412 -0.1344 -0.2374  0.1279
  226POPE   PO4 2349  10.883   3.110   6.475  0.2358  0.2500 -0.0355
  226POPE   GL1 2350  11.009   2.816   6.144  0.0433 -0.2087  0.0184
  226POPE   GL2 2351  11.298   3.039   5.992  0.2261  0.0265  0.1994
  226POPE   C1A 2352  10.933   2.693   5.797 -0.2016 -0.0406 -0.1273
  226POPE   D2A 2353  11.016   2.521   5.411 -0.1282  0.0819  0.2000
  226POPE   C3A 2354  11.084   2.753   5.076 -0.2669  0.0685  0.1327
  226POPE   C4A 2355  11.087   3.156   4.908  0.3227 -0.0149 -0.0549
  226POPE   C1B 2356  11.074   3.213   5.560  0.1664  0.2565 -0.0394
  226POPE   C2B 2357  10.790   3.369   5.271  0.0695  0.2198  0.1652
  226POPE   C3B 2358  10.733   3.825   5.034 -0.3100 -0.1589 -0.0378
  226POPE   C4B 2359  10.527   3.989   4.722  0.1113 -0.0651  0.3304
  227POPS   CNO 2360   2.774   2.867   6.877  0.1721 -0.1258  0.3532
  227POPS   PO4 2361   3.169   2.955   6.886 -0.0023 -0.1318 -0.2915
  227POPS   GL1 2362   3.124   2.837   6.469  0.3403  0.1332 -0.1406
  227POPS   GL2 2363   2.795   2.827   6.354  0.1193 -0.2994 -0.0366
  227POPS   C1A 2364   3.183   3.150   6.112  0.3825  0.2656  0.0503
  227POPS   D2A 2365   3.409   3.371   5.733 -0.4807 -0.3982 -0.0726
  227POPS   C3A 2366   3.323   3.395   5.355  0.1791  0.0231  0.1798
  227POPS   C4A 2367   3.125   3.349   4.876  0.3560 -0.0787  0.0917
  227POPS   C1B 2368   2.827   2.851   5.855  0.2621  0.1251 -0.1725
  227POPS   C2B 2369   2.644   2.720   5.364  0.0545  0.2843 -0.0037
  227POPS   C3B 2370   2.451   2.665   5.026 -0.0402 -0.0626  0.2693
  227POPS   C4B 2371   2.106   2.731   4.668 -0.1309 -0.1208 -0.0762
  228POSM   NC3 2372  10.626  12.251   6.915 -0.1129  0.1857  0.0174
  228POSM   PO4 2373  10.151  12.315   6.812  0.1092  0.0601 -0.1779
  228POSM   AM1 2374  10.355  12.349   6.440 -0.2207 -0.0631  0.2724
  228POSM   AM2 2375  10.649  12.148   6.380  0.0154  0.1686  0.4085
  228POSM   T1A 2376  10.155  12.412   6.059  0.3372  0.2357 -0.0800
  228POSM   C2A 2377   9.707  12.492   6.009  0.0248 -0.0737 -0.0813
  228POSM   C3A 2378   9.275  12.497   5.787 -0.4003 -0.3541 -0.0063
  228POSM   C1B 2379  10.787  11.962   5.943 -0.2939  0.0151 -0.1013
  228POSM   D2B 2380  10.823  11.990   5.416  0.1047  0.0211  0.0997
  228POSM   C3B 2381  10.459  12.126   5.262 -0.0074  0.0033  0.2230
  228POSM   C4B 2382  10.219  12.394   5.071  0.0080  0.0006 -0.0979
  229POPC   NC3 2383   7.998  13.002   6.758 -0.1405  0.0690  0.4093
  229POPC   PO4 2384   7.884  12.779   6.473 -0.0115 -0.2339  0.0416
  229POPC   GL1 2385   7.822  12.831   6.084 -0.0670  0.2277  0.3594
  229POPC   GL2 2386   7.890  13.133   5.878  0.1479  0.0604 -0.0658
  229POPC   C1A 2387   7.943  12.682   5.630 -0.2341 -0.3347 -0.0736
  229POPC   D2A 2388   7.923  12.871   5.274  0.1595 -0.3204 -0.2332
  229POPC   C3A 2389   7.714  12.631   4.924  0.4448  0.1647  0.0306
  229POPC   C4A 2390   7.398  12.641   4.606  0.0041  0.2124 -0.1056
  229POPC   C1B 2391   7.633  13.089   5.596 -0.2103 -0.2079  0.0103
  229POPC   C2B 2392   7.602  13.374   5.192 -0.4979 -0.2134 -0.0060
  229POPC   C3B 2393   7.450  13.487   4.855  0.1557  0.0592 -0.0221
  229POPC   C4B 2394   7.052  13.637   4.708 -0.3990  0.0169 -0.0729
  230POSM   NC3 2395   9.612   2.715   6.582  0.1877  0.1771  0.0863
  230POSM   PO4 2396   9.173   2.958   6.560 -0.0220 -0.0020 -0.0596
  230POSM   AM1 2397   9.092   2.687   6.292 -0.3684 -0.0453  0.1294
  230POSM   AM2 2398   9.349   2.696   6.132  0.2427  0.0574  0.1540
  230POSM   T1A 2399   9.034   2.391   5.837  0.1191  0.2079 -0.2879
  230POSM   C2A 2400   8.930   2.262   5.427  0.0209  0.0405 -0.0518
  230POSM   C3A 2401   9.155   1.876   5.080  0.0715 -0.0850  0.2383
  230POSM   C1B 2402   9.513   2.331   5.868 -0.0246  0.2064  0.0992
  230POSM   D2B 2403   9.744   2.344   5.526 -0.0315 -0.0042 -0.1896
  230POSM   C3B 2404   9.879   1.965   5.377 -0.2511 -0.2148 -0.0986
  230POSM   C4B 2405  10.055   1.782   4.991  0.3297 -0.1114  0.2870
  231POSM   NC3 2406   7.331  13.592   7.287 -0.3547  0.1932 -0.0798
  231POSM   PO4 2407   7.189  13.466   6.873 -0.2876  0.1042 -0.0059
  231POSM   AM1 2408   7.108  13.325   6.497  0.0723 -0.3267  0.3614
  231POSM   AM2 2409   6.884  13.439   6.350  0.2633  0.2365 -0.2568
  231POSM   T1A 2410   7.319  13.329   6.033 -0.1412 -0.2274  0.0282
  231POSM   C2A 2411   7.325  13.512   5.593  0.1118  0.1143  0.1398
  231POSM   C3A 2412   7.127  13.678   5.212  0.3423 -0.1189 -0.0581
  231POSM   C1B 2413   6.887  13.604   5.915  0.2662  0.0994  0.0350
  231POSM   D2B 2414   6.663  13.537   5.595 -0.1980 -0.1072  0.4565
  231POSM   C3B 2415   6.638  13.431   5.145  0.0256 -0.1966 -0.1462
  231POSM   C4B 2416   6.589  13.367   4.793 -0.0438 -0.0804  0.0308
  232POSM   NC3 2417  11.539  11.169   6.796 -0.1012  0.0846 -0.0096
  232POSM   PO4 2418  11.845  11.103   6.484  0.1996 -0.3085 -0.2473
  232POSM   AM1 2419  12.041  11.479   6.320  0.0409 -0.0704  0.1164
  232POSM   AM2 2420  12.332  11.504   6.233 -0.0451  0.1176  0.2660
  232POSM   T1A 2421  12.053  11.879   5.871 -0.0050  0.0845 -0.1422
  232POSM   C2A 2422  12.115  12.249   5.553  0.0346  0.1841 -0.3582
  232POSM   C3A 2423  11.892  12.340   5.241 -0.0026 -0.0903 -0.0457
  232POSM   C1B 2424  12.472  11.450   5.879 -0.0291 -0.0241 -0.2342
  232POSM   D2B 2425  12.860  11.261   5.773  0.1032  0.2061  0.0618
  232POSM   C3B 2426  13.214  11.371   5.466  0.1174 -0.0572  0.0572
  232POSM   C4B 2427  13.320  11.436   5.012  0.3121  0.1326  0.2080
  233POPE   NH3 2428  13.205   5.986   6.464  0.1364  0.0658 -0.1445
  233POPE   PO4 2429  13.557   6.073   6.464  0.0225 -0.1551  0.0701
  233POPE   GL1 2430  13.617   5.832   6.081  0.0224 -0.1479  0.0050
  233POPE   GL2 2431  13.607   5.947   5.826  0.0486 -0.0728  0.1349
  233POPE   C1A 2432  13.384   5.627   5.570 -0.1323 -0.1726 -0.0592
  233POPE   D2A 2433  13.146   5.394   5.333 -0.0563  0.1328 -0.0007
  233POPE   C3A 2434  12.930   5.528   4.994  0.0113  0.0276 -0.0482
  233POPE   C4A 2435  12.961   5.386   4.542 -0.0848 -0.1317 -0.2623
  233POPE   C1B 2436  13.678   6.020   5.404 -0.0465  0.0307 -0.0299
  233POPE   C2B 2437  13.623   5.712   5.131 -0.2336 -0.0745  0.0328
  233POPE   C3B 2438  13.460   5.596   4.700 -0.0070  0.1767  0.0289
  233POPE   C4B 2439  13.367   5.856   4.333  0.1213 -0.4995 -0.4606
  234CHOL   ROH 2440   5.195  13.326   6.173 -0.2454 -0.4060 -0.0045
  234CHOL    R1 2441   5.193  13.246   5.902 -0.1374 -0.2758 -0.0441
  234CHOL    R2 2442   5.010  13.344   5.720 -0.0418 -0.1653 -0.0736
  234CHOL    R3 2443   5.233  13.408   5.578  0.0257 -0.1284  0.0460
  234CHOL    R4 2444   5.020  13.386   5.377  0.0966 -0.0422 -0.0561
  234CHOL    R5 2445   5.212  13.282   5.375  0.0969 -0.0592 -0.0116
  234CHOL    C1 2446   5.236  13.470   5.044  0.2404  0.0642  0.0664
  234CHOL    C2 2447   5.309  13.437   4.619  0.0848  0.1716 -0.2375
  235POPE   NH3 2448   1.802   8.001   6.461  0.1567  0.2738  0.1171
  235POPE   PO4 2449   1.811   7.530   6.496  0.0275 -0.0442 -0.0940
  235POPE   GL1 2450   1.767   7.547   6.000 -0.2890 -0.2432 -0.0119
  235POPE   GL2 2451   1.624   7.852   6.018  0.0326 -0.1163  0.1394
  235POPE   C1A 2452   1.428   7.497   5.630 -0.1652  0.2252  0.3838
  235POPE   D2A 2453   1.461   7.566   5.231 -0.0019 -0.3156  0.2947
  235POPE   C3A 2454   1.926   7.504   5.004  0.0243  0.1833 -0.0561
  235POPE   C4A 2455   2.021   7.353   4.557 -0.2967  0.3011 -0.0938
  235POPE   C1B 2456   1.507   8.184   5.700  0.0477 -0.0968 -0.2608
  235POPE   C2B 2457   1.630   8.497   5.325 -0.1372 -0.3805 -0.3167
  235POPE   C3B 2458   1.674   8.481   4.863  0.1574 -0.3502  0.0484
  235POPE   C4B 2459   1.586   8.198   4.529  0.1268  0.1806 -0.2691
  236CHOL   ROH 2460   2.892   4.510   5.844 -0.0089 -0.3048 -0.1248
  236CHOL    R1 2461   3.111   4.370   5.731  0.1434 -0.0993 -0.0878
  236CHOL    R2 2462   3.118   4.295   5.466  0.2285 -0.1494 -0.0710
  236CHOL    R3 2463   3.355   4.429   5.467  0.0908  0.1014 -0.0959
  236CHOL    R4 2464   3.378   4.238   5.245  0.3538 -0.0429  0.0468
  236CHOL    R5 2465   3.517   4.261   5.412  0.2824  0.2247  0.0762
  236CHOL    C1 2466   3.752   4.330   5.118  0.2977  0.2545  0.0920
  236CHOL    C2 2467   3.861   4.295   4.790 -0.1390  0.1896 -0.1891
  237CHOL   ROH 2468   8.779  13.499   5.892 -0.2210 -0.1935  0.0293
  237CHOL    R1 2469   8.776  13.404   5.625 -0.1145 -0.0668 -0.0180
  237CHOL    R2 2470   8.608  13.508   5.432 -0.1154 -0.0475 -0.0080
  237CHOL    R3 2471   8.840  13.541   5.295 -0.0962  0.1227  0.0632
  237CHOL    R4 2472   8.635  13.664   5.124 -0.1100  0.1024  0.0674
  237CHOL    R5 2473   8.779  13.511   5.065 -0.0241  0.1960  0.0338
  237CHOL    C1 2474   8.869  13.785   4.816 -0.0889  0.3495  0.1780
  237CHOL    C2 2475   9.124  13.998   4.631 -0.3493 -0.0806  0.4333
  238POPE   NH3 2476   3.045  10.127   6.548 -0.1951 -0.2627 -0.0120
  238POPE   PO4 2477   3.524  10.181   6.472  0.1125  0.1293 -0.2841
  238POPE   GL1 2478   3.239   9.904   6.129 -0.1079  0.1032  0.2849
  238POPE   GL2 2479   3.004   9.672   6.134  0.1704 -0.1008  0.0387
  238POPE   C1A 2480   3.421   9.796   5.728  0.0997  0.1984 -0.2186
  238POPE   D2A 2481   3.818   9.895   5.447 -0.1312  0.0766  0.2162
  238POPE   C3A 2482   3.626  10.303   5.074  0.0743 -0.3327  0.4256
  238POPE   C4A 2483   3.329  10.277   4.576 -0.0753 -0.1629  0.2700
  238POPE   C1B 2484   2.981   9.620   5.600  0.0404 -0.0587  0.0794
  238POPE   C2B 2485   3.230   9.501   5.246  0.0698  0.2323  0.0147
  238POPE   C3B 2486   3.052   9.267   4.836 -0.0414  0.3325 -0.2693
  238POPE   C4B 2487   2.731   8.953   4.769  0.0853 -0.2388  0.0311
  239CHOL   ROH 2488   4.604   2.760   6.367 -0.0686 -0.0368  0.0403
  239CHOL    R1 2489   4.693   2.845   6.112 -0.0654  0.0082  0.0556
  239CHOL    R2 2490   4.903   2.724   5.980 -0.0835  0.0078  0.0200
  239CHOL    R3 2491   4.721   2.699   5.779 -0.0967  0.0762  0.0240
  239CHOL    R4 2492   4.981   2.668   5.648 -0.1177  0.0119  0.0116
  239CHOL    R5 2493   4.823   2.808   5.592 -0.0765  0.0592  0.0289
  239CHOL    C1 2494   4.856   2.611   5.267 -0.1500  0.0785  0.0105
  239CHOL    C2 2495   5.056   2.743   5.012  0.1275 -0.2178  0.4657
  240CHOL   ROH 2496  13.514   8.033   6.065  0.4544  0.0021 -0.1243
  240CHOL    R1 2497  13.370   8.058   5.823  0.2524 -0.0399 -0.0104
  240CHOL    R2 2498  13.284   8.303   5.727  0.1897 -0.0544  0.0100
  240CHOL    R3 2499  13.419   8.225   5.503 -0.0040 -0.1109 -0.0897
  240CHOL    R4 2500  13.235   8.434   5.411  0.2742  0.2402  0.1162
  240CHOL    R5 2501  13.254   8.233   5.329 -0.0614  0.2580 -0.0277
  240CHOL    C1 2502  13.332   8.439   5.018  0.1416  0.3588  0.0845
  240CHOL    C2 2503  13.302   8.693   4.686  0.1115 -0.1685  0.2064
  241POPC   NC3 2504   6.142  14.914   7.052 -0.0614 -0.0726 -0.0455
  241POPC   PO4 2505   6.150  14.863   6.589 -0.2058  0.1502  0.1704
  241POPC   GL1 2506   6.494  14.914   6.300  0.0489 -0.2215  0.1617
  241POPC   GL2 2507   6.679  14.634   6.223  0.0182 -0.1655  0.1928
  241POPC   C1A 2508   6.586  14.915   5.801  0.2145 -0.0464  0.3514
  241POPC   D2A 2509   6.806  14.996   5.376 -0.1063 -0.2006 -0.2228
  241POPC   C3A 2510   6.745  15.113   4.998 -0.2742  0.0741  0.2404
  241POPC   C4A 2511   6.972  15.067   4.521  0.2018  0.1499 -0.1241
  241POPC   C1B 2512   6.402  14.395   5.974 -0.1022 -0.0308 -0.2789
  241POPC   C2B 2513   6.163  14.619   5.691  0.1966  0.0328 -0.1016
  241POPC   C3B 2514   6.203  14.925   5.387  0.3856 -0.1669  0.0317
  241POPC   C4B 2515   6.213  14.955   5.059  0.2603 -0.1093  0.0887
  242POPC   NC3 2516   9.676  13.603   6.517  0.2536 -0.0302 -0.2044
  242POPC   PO4 2517   9.898  13.205   6.574  0.1597  0.3422  0.1050
  242POPC   GL1 2518   9.943  13.307   6.215 -0.1153  0.0158 -0.1535
  242POPC   GL2 2519   9.877  12.994   6.028 -0.2650 -0.0292  0.1498
  242POPC   C1A 2520   9.740  13.428   5.859 -0.1557 -0.1203  0.1020
  242POPC   D2A 2521   9.795  13.352   5.437  0.0703  0.1481 -0.0727
  242POPC   C3A 2522   9.862  13.550   5.074 -0.1055  0.3467 -0.2019
  242POPC   C4A 2523  10.251  13.699   4.825 -0.2963 -0.0693 -0.0491
  242POPC   C1B 2524   9.592  12.876   5.618  0.1906 -0.1734  0.2876
  242POPC   C2B 2525   9.223  12.757   5.365  0.3370 -0.2461  0.2466
  242POPC   C3B 2526   9.155  12.879   4.922 -0.0611 -0.0286 -0.0479
  242POPC   C4B 2527   8.835  13.114   4.784  0.3518 -0.2364 -0.0724
  243CHOL   ROH 2528   9.855   2.468   6.159 -0.0307 -0.3628  0.0452
  243CHOL    R1 2529  10.036   2.367   5.967 -0.1407 -0.2780 -0.1045
  243CHOL    R2 2530  10.229   2.178   6.029  0.0856 -0.0904 -0.2297
  243CHOL    R3 2531  10.115   2.042   5.824 -0.0109 -0.2660 -0.0637
  243CHOL    R4 2532  10.396   1.960   5.820  0.0332 -0.1198 -0.2421
  243CHOL    R5 2533  10.282   2.041   5.652 -0.1457 -0.2714 -0.1989
  243CHOL    C1 2534  10.386   1.705   5.505 -0.0878 -0.3017 -0.0934
  243CHOL    C2 2535  10.528   1.649   5.203 -0.0900 -0.1167 -0.0755
  244POPC   NC3 2536  12.402  12.891   6.722 -0.3615 -0.0779 -0.2024
  244POPC   PO4 2537  12.089  12.806   6.478 -0.0179  0.0414 -0.0050
  244POPC   GL1 2538  12.050  12.870   6.073  0.1843 -0.1926  0.2062
  244POPC   GL2 2539  11.689  12.848   6.070 -0.0195 -0.1379 -0.1930
  244POPC   C1A 2540  12.078  12.733   5.608  0.4431  0.0262  0.2725
  244POPC   D2A 2541  11.901  12.883   5.337 -0.0654  0.0438 -0.0302
  244POPC   C3A 2542  11.895  12.797   4.974  0.1444  0.1057 -0.2675
  244POPC   C4A 2543  12.100  12.518   4.760 -0.1684 -0.2673  0.2607
  244POPC   C1B 2544  11.583  12.525   5.738 -0.2980  0.0795 -0.0568
  244POPC   C2B 2545  11.480  12.658   5.376  0.1172  0.1796  0.0046
  244POPC   C3B 2546  11.451  12.654   5.024  0.2804 -0.2181 -0.1258
  244POPC   C4B 2547  11.475  12.344   4.734  0.2261  0.2810 -0.0117
  245POPC   NC3 2548  10.637   1.486   7.261 -0.2297 -0.0198 -0.2011
  245POPC   PO4 2549  10.579   1.425   6.756 -0.1523 -0.1260 -0.0463
  245POPC   GL1 2550  10.392   1.208   6.335  0.0531  0.0868  0.1466
  245POPC   GL2 2551  10.220   1.547   6.253  0.1048 -0.1013 -0.0199
  245POPC   C1A 2552  10.432   1.275   5.855 -0.0937  0.1411 -0.2634
  245POPC   D2A 2553  10.053   1.215   5.448 -0.0088 -0.1572 -0.1337
  245POPC   C3A 2554  10.162   1.085   5.014 -0.0823  0.2835 -0.3327
  245POPC   C4A 2555   9.973   0.777   4.833 -0.0513 -0.1985  0.2579
  245POPC   C1B 2556   9.996   1.563   5.848  0.4104  0.3818 -0.4808
  245POPC   C2B 2557   9.638   1.523   5.491 -0.0926 -0.0318  0.1292
  245POPC   C3B 2558   9.544   1.573   5.072  0.2191 -0.0313  0.2119
  245POPC   C4B 2559   9.864   1.353   4.716 -0.1144  0.4071 -0.1072
  246POPS   CNO 2560  11.422  12.497   6.999 -0.1958  0.0027  0.2013
  246POPS   PO4 2561  11.494  12.637   6.564  0.3320 -0.0792  0.1862
  246POPS   GL1 2562  11.469  12.278   6.166 -0.1433  0.2031  0.3049
  246POPS   GL2 2563  11.066  12.310   6.101 -0.2720  0.0231  0.0223
  246POPS   C1A 2564  11.530  11.967   5.705 -0.1443  0.0843 -0.1211
  246POPS   D2A 2565  11.402  12.108   5.318 -0.0793  0.0359 -0.1308
  246POPS   C3A 2566  11.630  11.923   4.917 -0.0117  0.1225 -0.3775
  246POPS   C4A 2567  12.087  11.929   4.817  0.4761  0.2878 -0.1054
  246POPS   C1B 2568  11.070  12.359   5.626  0.1145 -0.1575  0.1362
  246POPS   C2B 2569  10.956  12.457   5.173  0.0163 -0.2356 -0.1547
  246POPS   C3B 2570  10.784  12.256   4.829 -0.0049 -0.4246  0.2057
  246POPS   C4B 2571  10.675  11.843   4.588 -0.0226 -0.2395 -0.1343
  247CHOL   ROH 2572  13.150   5.936   5.976 -0.1873  0.3044  0.0995
  247CHOL    R1 2573  13.055   6.047   5.733 -0.1773  0.1142  0.0080
  247CHOL    R2 2574  13.224   6.128   5.530 -0.1641  0.0682  0.0064
  247CHOL    R3 2575  13.070   5.962   5.380 -0.0495 -0.0909  0.0593
  247CHOL    R4 2576  13.233   6.108   5.185 -0.1961  0.0229  0.0073
  247CHOL    R5 2577  13.016   6.091   5.185 -0.1888 -0.1620  0.0448
  247CHOL    C1 2578  13.094   5.941   4.843 -0.1072 -0.1528  0.0574
  247CHOL    C2 2579  13.028   6.206   4.659  0.1232 -0.0197  0.1376
  248CHOL   ROH 2580   5.313  13.643   6.507 -0.0013  0.1787 -0.2821
  248CHOL    R1 2581   5.411  13.774   6.276  0.1581  0.0244 -0.3055
  248CHOL    R2 2582   5.580  13.651   6.095 -0.1169 -0.2699 -0.3774
  248CHOL    R3 2583   5.391  13.727   5.916 -0.0526  0.0846 -0.3013
  248CHOL    R4 2584   5.624  13.661   5.753 -0.1971 -0.2117 -0.3855
  248CHOL    R5 2585   5.512  13.847   5.748  0.0839 -0.0373 -0.2897
  248CHOL    C1 2586   5.472  13.739   5.385 -0.1836  0.1548 -0.3188
  248CHOL    C2 2587   5.579  13.768   5.084  0.0842  0.1188 -0.1674
  249CHOL   ROH 2588  12.185   4.227   5.594 -0.0386 -0.1978 -0.0933
  249CHOL    R1 2589  12.094   4.179   5.330  0.1080 -0.2886 -0.1303
  249CHOL    R2 2590  11.995   4.379   5.168 -0.1609 -0.3972 -0.1203
  249CHOL    R3 2591  12.184   4.289   4.995  0.0417 -0.0761 -0.0787
  249CHOL    R4 2592  11.978   4.406   4.824 -0.0206 -0.2587 -0.1160
  249CHOL    R5 2593  12.060   4.205   4.809  0.2424 -0.1478 -0.1776
  249CHOL    C1 2594  12.146   4.337   4.461  0.2514  0.1234 -0.0744
  249CHOL    C2 2595  11.776   4.567   4.289  0.0158  0.1824  0.0364
  250CHOL   ROH 2596   3.925   3.373   5.849 -0.0348 -0.1273  0.0107
  250CHOL    R1 2597   4.018   3.453   5.595 -0.0490 -0.0292  0.0356
  250CHOL    R2 2598   4.145   3.280   5.422 -0.0592  0.0363 -0.0396
  250CHOL    R3 2599   3.953   3.362   5.248 -0.0698  0.1039  0.0042
  250CHOL    R4 2600   4.172   3.268   5.077 -0.0512  0.2429 -0.0470
  250CHOL    R5 2601   4.075   3.463   5.068 -0.0846  0.2308  0.0652
  250CHOL    C1 2602   4.007   3.339   4.714 -0.0565  0.4267 -0.0101
  250CHOL    C2 2603   4.021   3.390   4.331  0.0405 -0.0037 -0.2323
  251POPE   NH3 2604   6.241  13.941   6.700 -0.0825 -0.0341 -0.0530
  251POPE   PO4 2605   6.632  14.134   6.763 -0.3132 -0.0360 -0.2366
  251POPE   GL1 2606   6.643  14.105   6.323  0.0422  0.0595 -0.0694
  251POPE   GL2 2607   6.511  13.762   6.311  0.1300  0.1343 -0.2078
  251POPE   C1A 2608   6.917  14.115   5.973  0.1795  0.1209 -0.2060
  251POPE   D2A 2609   6.898  13.965   5.585  0.0887  0.1878  0.2817
  251POPE   C3A 2610   7.009  14.161   5.201 -0.0275 -0.0246 -0.1649
  251POPE   C4A 2611   7.024  14.173   4.763 -0.2081 -0.0835 -0.2039
  251POPE   C1B 2612   6.456  13.902   5.908 -0.2841 -0.1113  0.1992
  251POPE   C2B 2613   6.414  14.074   5.452  0.1912 -0.0891  0.1773
  251POPE   C3B 2614   6.479  14.038   4.997  0.6425  0.1927  0.2006
  251POPE   C4B 2615   6.562  14.214   4.596  0.0662 -0.2172  0.0883
  252POSM   NC3 2616   0.593   8.916   6.647 -0.2084  0.2745  0.2133
  252POSM   PO4 2617   0.636   8.509   6.403 -0.0908  0.0790  0.1516
  252POSM   AM1 2618   1.099   8.606   6.264 -0.0419 -0.1019  0.0809
  252POSM   AM2 2619   1.340   8.869   6.010 -0.2567  0.1051  0.0890
  252POSM   T1A 2620   1.105   8.426   5.838  0.0024 -0.1012  0.0830
  252POSM   C2A 2621   1.161   8.479   5.426 -0.2704 -0.1875  0.0560
  252POSM   C3A 2622   1.204   8.380   5.061  0.0361 -0.1536  0.2077
  252POSM   C1B 2623   1.157   8.966   5.604  0.0760  0.0682  0.1867
  252POSM   D2B 2624   1.353   8.892   5.215 -0.0288  0.1513  0.3548
  252POSM   C3B 2625   1.161   8.864   4.913  0.0684 -0.0844  0.0618
  252POSM   C4B 2626   1.211   8.705   4.512 -0.3061 -0.4142  0.0853
  253CHOL   ROH 2627  13.825   7.725   6.230  0.0659  0.1783  0.0189
  253CHOL    R1 2628  13.757   7.661   5.962  0.1058  0.0414  0.0413
  253CHOL    R2 2629  13.766   7.847   5.758  0.0208 -0.0338 -0.0291
  253CHOL    R3 2630  13.926   7.661   5.640  0.1156 -0.0009  0.0451
  253CHOL    R4 2631  13.899   7.874   5.440  0.0953 -0.0380  0.0013
  253CHOL    R5 2632  13.858   7.663   5.410  0.1741 -0.0601  0.0252
  253CHOL    C1 2633  14.126   7.716   5.144  0.2278 -0.0096  0.0887
  253CHOL    C2 2634  14.158   7.738   4.809  0.2725  0.0064  0.2213
  254POPE   NH3 2635   0.868   9.496   6.430 -0.2084  0.1633  0.0770
  254POPE   PO4 2636   1.354   9.438   6.202 -0.3202  0.0856  0.1087
  254POPE   GL1 2637   1.581   9.339   5.882 -0.0576 -0.0465 -0.1434
  254POPE   GL2 2638   1.854   9.387   6.040  0.1081 -0.0068  0.1356
  254POPE   C1A 2639   1.471   9.326   5.449  0.0374  0.0638  0.1348
  254POPE   D2A 2640   1.567   9.416   5.073  0.0268 -0.0180  0.0735
  254POPE   C3A 2641   1.241   9.331   4.730  0.0798 -0.0536 -0.0139
  254POPE   C4A 2642   1.010   9.171   4.428  0.0212 -0.0703 -0.0942
  254POPE   C1B 2643   2.139   9.475   5.640  0.4177 -0.3344 -0.0821
  254POPE   C2B 2644   2.533   9.519   5.482 -0.2736  0.2010  0.3464
  254POPE   C3B 2645   2.491   9.518   5.042  0.0121 -0.0953 -0.1778
  254POPE   C4B 2646   2.286   9.760   4.741 -0.0215  0.2576 -0.1297
  255POPS   CNO 2647  12.088   3.080   6.533 -0.0350 -0.0135  0.2875
  255POPS   PO4 2648  12.063   3.347   6.314  0.4598 -0.1540 -0.3263
  255POPS   GL1 2649  12.234   3.469   5.892  0.2944 -0.1669 -0.2672
  255POPS   GL2 2650  12.600   3.482   5.834  0.1021  0.1155 -0.1653
  255POPS   C1A 2651  12.232   3.644   5.516  0.1277 -0.0702 -0.0729
  255POPS   D2A 2652  12.300   3.765   5.090  0.0790 -0.0693 -0.1199
  255POPS   C3A 2653  12.306   3.832   4.646  0.2049  0.0112  0.0207
  255POPS   C4A 2654  12.416   3.880   4.205 -0.2361  0.3605  0.1433
  255POPS   C1B 2655  12.763   3.452   5.412 -0.1140 -0.0900  0.0644
  255POPS   C2B 2656  12.864   3.371   5.061 -0.0581 -0.0446 -0.1119
  255POPS   C3B 2657  13.089   3.305   4.698 -0.0635 -0.2486  0.1797
  255POPS   C4B 2658  13.490   3.071   4.476  0.1270  0.5117 -0.0281
  256CHOL   ROH 2659   3.590   1.302   6.421  0.0673 -0.1156 -0.0665
  256CHOL    R1 2660   3.708   1.426   6.196  0.1312 -0.0794 -0.0137
  256CHOL    R2 2661   3.642   1.682   6.115 -0.0144 -0.1523 -0.1250
  256CHOL    R3 2662   3.910   1.723   6.134 -0.0568  0.0649  0.0574
  256CHOL    R4 2663   3.804   1.972   6.020 -0.1636 -0.0892 -0.1909
  256CHOL    R5 2664   3.964   1.849   5.937 -0.0018 -0.0231  0.0129
  256CHOL    C1 2665   4.150   2.179   5.982 -0.2903  0.1515 -0.0580
  256CHOL    C2 2666   4.296   2.519   6.058  0.0504  0.0413  0.0200
  257POPC   NC3 2667  14.723   5.478   6.589  0.3705 -0.2418 -0.0573
  257POPC   PO4 2668  14.435   5.685   6.248  0.0619 -0.1095  0.0709
  257POPC   GL1 2669  14.257   5.414   5.989  0.0039 -0.2819 -0.0140
  257POPC   GL2 2670  13.992   5.661   5.826 -0.1081 -0.0611  0.1085
  257POPC   C1A 2671  14.204   5.266   5.649  0.1393 -0.1796 -0.2145
  257POPC   D2A 2672  14.118   4.831   5.527  0.0374  0.1465  0.2370
  257POPC   C3A 2673  13.781   4.663   5.692  0.0808 -0.0833  0.0444
  257POPC   C4A 2674  13.398   4.834   6.076  0.1822 -0.0854  0.0506
  257POPC   C1B 2675  14.058   5.662   5.424  0.1583  0.0300 -0.1191
  257POPC   C2B 2676  14.116   5.572   5.065  0.0394  0.2584  0.2771
  257POPC   C3B 2677  14.266   5.461   4.725 -0.0495 -0.0086 -0.2057
  257POPC   C4B 2678  14.526   5.190   4.674 -0.0828 -0.2799 -0.0267
  258POPE   NH3 2679   2.100   6.312   6.253  0.2462  0.1311  0.1359
  258POPE   PO4 2680   2.271   5.938   6.300 -0.0761 -0.0546 -0.2036
  258POPE   GL1 2681   2.093   5.704   6.006  0.1005 -0.2168  0.0312
  258POPE   GL2 2682   1.884   5.935   5.915  0.1462  0.0808 -0.0558
  258POPE   C1A 2683   1.895   5.618   5.570 -0.1267 -0.0501  0.2173
  258POPE   D2A 2684   1.726   5.722   5.232  0.1929  0.0417 -0.1003
  258POPE   C3A 2685   1.672   5.977   4.827 -0.1477  0.1654 -0.2331
  258POPE   C4A 2686   1.184   5.930   4.633 -0.2288 -0.3049  0.0292
  258POPE   C1B 2687   1.651   6.098   5.614  0.0525  0.0283  0.0243
  258POPE   C2B 2688   1.669   6.487   5.319 -0.1559  0.1961  0.1655
  258POPE   C3B 2689   1.453   6.552   4.882  0.1744 -0.1176 -0.0372
  258POPE   C4B 2690   1.276   6.419   4.481 -0.0365 -0.0963 -0.0476
  259POPC   NC3 2691   1.819  12.574   6.521  0.0858  0.0136 -0.1125
  259POPC   PO4 2692   2.079  12.096   6.445 -0.0571  0.1889 -0.0815
  259POPC   GL1 2693   2.109  11.800   6.140  0.0314 -0.2237  0.0975
  259POPC   GL2 2694   2.443  11.839   6.161 -0.0782 -0.1676  0.2375
  259POPC   C1A 2695   2.436  11.424   5.898 -0.0482  0.1364  0.3770
  259POPC   D2A 2696   2.633  11.079   5.871  0.1890  0.4471 -0.2673
  259POPC   C3A 2697   2.838  11.135   5.502 -0.0090  0.1274 -0.0070
  259POPC   C4A 2698   2.936  10.915   5.063  0.0468 -0.0826 -0.2266
  259POPC   C1B 2699   2.409  11.869   5.694 -0.2078  0.0871 -0.0678
  259POPC   C2B 2700   2.241  11.576   5.365  0.2769 -0.0319  0.2941
  259POPC   C3B 2701   2.034  11.431   4.924  0.2688  0.1821  0.0326
  259POPC   C4B 2702   1.901  11.249   4.555 -0.1299 -0.2394  0.0845
  260POPC   NC3 2703   9.445  13.762   7.083 -0.0609  0.2172  0.0834
  260POPC   PO4 2704   9.608  14.039   6.795 -0.2068  0.1106 -0.0043
  260POPC   GL1 2705   9.703  14.092   6.383  0.3065  0.0001  0.2114
  260POPC   GL2 2706   9.473  14.044   6.119 -0.1076  0.0436 -0.0680
  260POPC   C1A 2707  10.015  13.876   6.088 -0.0909 -0.0025 -0.0929
  260POPC   D2A 2708  10.271  13.542   5.831  0.1703 -0.0325 -0.2288
  260POPC   C3A 2709  10.164  13.144   5.628  0.1980  0.0601  0.0863
  260POPC   C4A 2710  10.146  12.677   5.668  0.0318 -0.0641 -0.0502
  260POPC   C1B 2711   9.653  13.932   5.679  0.1665  0.0150 -0.0558
  260POPC   C2B 2712  10.047  13.865   5.524 -0.0728  0.2326  0.0466
  260POPC   C3B 2713  10.369  13.572   5.305 -0.1697 -0.2035 -0.2870
  260POPC   C4B 2714  10.596  13.126   5.128 -0.1347 -0.1057  0.1809
  261CHOL   ROH 2715   8.138   0.695   6.103 -0.0451 -0.1883 -0.3133
  261CHOL    R1 2716   8.078   0.851   5.874 -0.2614 -0.0157 -0.1426
  261CHOL    R2 2717   7.990   1.112   5.891  0.1996  0.1301  0.1349
  261CHOL    R3 2718   8.200   1.160   5.725 -0.0497 -0.1644 -0.2867
  261CHOL    R4 2719   7.991   1.345   5.636  0.1342  0.4368  0.4067
  261CHOL    R5 2720   8.100   1.201   5.512 -0.4615  0.3115 -0.0209
  261CHOL    C1 2721   8.189   1.525   5.331 -0.1379  0.3390  0.1693
  261CHOL    C2 2722   8.224   1.600   4.936 -0.1055 -0.1432  0.4262
  262CHOL   ROH 2723   6.986   0.737   6.405  0.2207  0.0259  0.1176
  262CHOL    R1 2724   7.077   0.790   6.142  0.2210  0.0387  0.1196
  262CHOL    R2 2725   7.231   0.611   5.999  0.1022 -0.0156  0.0574
  262CHOL    R3 2726   7.035   0.641   5.813  0.0967  0.1427  0.0875
  262CHOL    R4 2727   7.276   0.576   5.658  0.0376  0.0176  0.0456
  262CHOL    R5 2728   7.145   0.747   5.628  0.1419  0.1073  0.0931
  262CHOL    C1 2729   7.118   0.583   5.285 -0.0052  0.1856  0.0670
  262CHOL    C2 2730   7.157   0.771   4.961  0.0852 -0.4201  0.4695
  263POPS   CNO 2731   2.967   5.746   6.702 -0.0169  0.4531  0.1268
  263POPS   PO4 2732   2.737   5.644   6.305  0.1289  0.1214 -0.1203
  263POPS   GL1 2733   2.637   5.657   5.915  0.1579  0.0080 -0.1529
  263POPS   GL2 2734   2.501   5.389   5.861  0.1095 -0.0494 -0.4133
  263POPS   C1A 2735   2.732   5.791   5.578 -0.1100 -0.1345  0.1199
  263POPS   D2A 2736   2.834   5.751   5.171  0.1104  0.0701  0.1131
  263POPS   C3A 2737   2.499   5.508   4.950  0.1971 -0.1578 -0.1801
  263POPS   C4A 2738   2.299   5.331   4.600  0.1077 -0.0260  0.1030
  263POPS   C1B 2739   2.317   5.344   5.401  0.0357  0.2107  0.0416
  263POPS   C2B 2740   2.038   5.350   5.014  0.0148 -0.0699 -0.0044
  263POPS   C3B 2741   1.773   5.489   4.688  0.0151 -0.2338 -0.1638
  263POPS   C4B 2742   1.420   5.526   4.359  0.2790 -0.1740 -0.0784
  264POSM   NC3 2743   3.379  12.524   6.990  0.1024  0.0757 -0.3084
  264POSM   PO4 2744   3.449  12.839   7.159  0.1738  0.2993  0.0952
  264POSM   AM1 2745   3.496  12.884   6.590 -0.0741  0.2792 -0.1395
  264POSM   AM2 2746   3.188  12.672   6.541  0.1581  0.0288  0.4592
  264POSM   T1A 2747   3.351  13.019   6.208  0.0069 -0.1173 -0.0551
  264POSM   C2A 2748   3.326  12.818   5.742  0.2007 -0.0517 -0.1542
  264POSM   C3A 2749   3.378  12.770   5.251  0.1298  0.1111 -0.0124
  264POSM   C1B 2750   3.427  12.558   6.178 -0.0257 -0.0481  0.0722
  264POSM   D2B 2751   3.531  12.220   5.942  0.0629  0.0573 -0.2513
  264POSM   C3B 2752   3.575  12.342   5.522  0.0979 -0.1102  0.0491
  264POSM   C4B 2753   3.759  12.383   5.101 -0.1316 -0.1468  0.0180
  265CHOL   ROH 2754   1.437   6.963   6.052 -0.0502  0.0107  0.0168
  265CHOL    R1 2755   1.558   7.054   5.812  0.1331 -0.0352  0.0912
  265CHOL    R2 2756   1.773   6.926   5.696  0.0927 -0.1760  0.1715
  265CHOL    R3 2757   1.612   6.923   5.477  0.1956 -0.0147  0.0919
  265CHOL    R4 2758   1.885   6.925   5.369  0.2523 -0.1115  0.2248
  265CHOL    R5 2759   1.725   7.064   5.319  0.3440 -0.0107  0.1980
  265CHOL    C1 2760   1.799   6.922   4.973  0.4418  0.0775  0.1810
  265CHOL    C2 2761   2.008   6.858   4.636  0.0008 -0.1290 -0.0366
  266POPE   NH3 2762   1.953  11.665   6.644  0.1207  0.0721 -0.1102
  266POPE   PO4 2763   2.231  11.557   6.847 -0.0388 -0.1353 -0.2461
  266POPE   GL1 2764   2.374  11.463   6.440  0.0255  0.1399 -0.0843
  266POPE   GL2 2765   2.364  11.131   6.279 -0.0654 -0.0156 -0.0998
  266POPE   C1A 2766   2.806  11.431   6.254  0.2643 -0.1885 -0.2537
  266POPE   D2A 2767   3.093  11.234   6.097 -0.2750 -0.0253  0.2342
  266POPE   C3A 2768   3.322  11.311   5.735  0.1759  0.2401  0.3221
  266POPE   C4A 2769   3.682  11.404   5.332 -0.2133 -0.0343 -0.0657
  266POPE   C1B 2770   2.136  10.948   5.861 -0.2563  0.0909  0.1076
  266POPE   C2B 2771   2.180  11.071   5.425  0.1538 -0.3300 -0.4240
  266POPE   C3B 2772   2.090  10.819   5.039 -0.0943  0.2961 -0.1543
  266POPE   C4B 2773   2.022  10.761   4.733  0.0569  0.0548 -0.0492
  267POPS   CNO 2774  11.063   2.357   7.014  0.0330 -0.0695  0.1283
  267POPS   PO4 2775  11.134   2.288   6.686  0.1730 -0.2756 -0.0962
  267POPS   GL1 2776  11.094   2.298   6.183 -0.0381  0.0610  0.1018
  267POPS   GL2 2777  11.324   2.343   5.982  0.0244 -0.1364 -0.2340
  267POPS   C1A 2778  10.881   2.179   5.799  0.0633  0.0344 -0.1389
  267POPS   D2A 2779  10.702   2.085   5.348 -0.0370 -0.0520 -0.2143
  267POPS   C3A 2780  10.836   1.956   4.990  0.0333 -0.0782  0.0499
  267POPS   C4A 2781  10.824   1.656   4.618  0.0099 -0.2750 -0.0117
  267POPS   C1B 2782  11.436   2.633   5.706 -0.1515  0.0371  0.0050
  267POPS   C2B 2783  11.554   2.544   5.236  0.1916  0.0325 -0.1778
  267POPS   C3B 2784  11.716   2.520   4.887  0.1840  0.1930  0.1377
  267POPS   C4B 2785  12.137   2.486   4.692  0.2576  0.0570  0.0181
  268CHOL   ROH 2786   6.577   0.952   6.144 -0.0407  0.2199 -0.0082
  268CHOL    R1 2787   6.643   0.890   5.876 -0.0503  0.1643  0.0020
  268CHOL    R2 2788   6.472   0.942   5.665 -0.0664  0.1021 -0.0007
  268CHOL    R3 2789   6.687   1.075   5.566 -0.0828  0.0975 -0.0424
  268CHOL    R4 2790   6.548   0.972   5.329  0.0177 -0.1315 -0.0045
  268CHOL    R5 2791   6.758   0.943   5.379  0.0143 -0.0237  0.0781
  268CHOL    C1 2792   6.794   1.115   5.041  0.0513 -0.2719 -0.0460
  268CHOL    C2 2793   6.607   1.053   4.766  0.1814 -0.0857  0.4458
  269CHOL   ROH 2794   8.794   1.427   6.129 -0.0616  0.1302 -0.1083
  269CHOL    R1 2795   8.776   1.425   5.847 -0.2334  0.1591 -0.0998
  269CHOL    R2 2796   8.863   1.211   5.694 -0.0410  0.2944 -0.1938
  269CHOL    R3 2797   8.610   1.222   5.594 -0.1245 -0.0197 -0.0281
  269CHOL    R4 2798   8.774   1.118   5.373 -0.0939  0.4365 -0.2202
  269CHOL    R5 2799   8.640   1.291   5.366 -0.3751  0.2307  0.0139
  269CHOL    C1 2800   8.485   1.075   5.093 -0.2031  0.2244 -0.0800
  269CHOL    C2 2801   8.703   0.858   4.842  0.2478  0.1306 -0.0359
  270CHOL   ROH 2802  14.611   6.439   5.768  0.1346  0.0326 -0.0195
  270CHOL    R1 2803  14.687   6.467   5.497  0.0550  0.1949 -0.0246
  270CHOL    R2 2804  14.648   6.268   5.310  0.2623  0.1967 -0.0666
  270CHOL    R3 2805  14.519   6.465   5.174  0.0021  0.0791  0.0016
  270CHOL    R4 2806  14.554   6.250   4.978  0.2480  0.1649 -0.0617
  270CHOL    R5 2807  14.614   6.458   4.955 -0.0085  0.2529 -0.0132
  270CHOL    C1 2808  14.378   6.425   4.657 -0.0046  0.0360  0.0052
  270CHOL    C2 2809  14.392   6.258   4.326  0.4118 -0.1389  0.2088
  271POPC   NC3 2810  12.934  10.206   6.766 -0.2065  0.1929  0.0771
  271POPC   PO4 2811  13.350  10.142   6.852  0.0097  0.2023 -0.1028
  271POPC   GL1 2812  13.258   9.970   6.409 -0.1595  0.0508 -0.2538
  271POPC   GL2 2813  13.158  10.292   6.331  0.0148  0.0414  0.0097
  271POPC   C1A 2814  13.538  10.094   5.981 -0.0668 -0.0107  0.1609
  271POPC   D2A 2815  13.860  10.264   5.763  0.0253 -0.3141  0.0855
  271POPC   C3A 2816  13.783  10.304   5.354  0.0060  0.0421 -0.3449
  271POPC   C4A 2817  13.751  10.224   4.852 -0.2687  0.2110 -0.0127
  271POPC   C1B 2818  13.014  10.307   5.953  0.0325 -0.0571  0.1243
  271POPC   C2B 2819  12.908  10.396   5.546 -0.4074  0.0367 -0.2348
  271POPC   C3B 2820  12.885  10.157   5.216  0.0705  0.0920  0.0714
  271POPC   C4B 2821  12.725  10.020   4.846 -0.0110  0.3116  0.1236
  272POPE   NH3 2822  15.440  11.643   6.398  0.0307  0.1181  0.0481
  272POPE   PO4 2823  15.009  11.406   6.416 -0.0364 -0.0467  0.3064
  272POPE   GL1 2824  14.783  11.327   5.999  0.0482  0.0622  0.1083
  272POPE   GL2 2825  14.522  11.548   6.024  0.2927 -0.0063  0.3821
  272POPE   C1A 2826  14.729  11.190   5.562  0.0035  0.0717  0.2528
  272POPE   D2A 2827  14.579  11.073   5.227  0.0240  0.0960 -0.4563
  272POPE   C3A 2828  14.615  10.701   5.124 -0.0232 -0.1363  0.0728
  272POPE   C4A 2829  14.786  10.416   4.914  0.0442  0.0847  0.0073
  272POPE   C1B 2830  14.635  11.676   5.629  0.2556  0.3036  0.0244
  272POPE   C2B 2831  14.682  11.590   5.290  0.3997 -0.2049  0.0257
  272POPE   C3B 2832  14.785  11.449   4.965 -0.0881  0.0434  0.1587
  272POPE   C4B 2833  14.516  11.322   4.581  0.0531  0.2485 -0.0874
  273POPE   NH3 2834   4.452  13.390   6.819  0.1113 -0.2370  0.2527
  273POPE   PO4 2835   4.211  13.780   6.683  0.0888  0.1111  0.3154
  273POPE   GL1 2836   4.176  13.520   6.332 -0.0080  0.0395 -0.1650
  273POPE   GL2 2837   4.464  13.165   6.327 -0.0612 -0.0335  0.0551
  273POPE   C1A 2838   4.064  13.556   6.030 -0.2351 -0.1092  0.1799
  273POPE   D2A 2839   3.848  13.654   5.606 -0.2947 -0.0361 -0.0563
  273POPE   C3A 2840   3.881  13.559   5.192  0.2638  0.0797  0.2380
  273POPE   C4A 2841   3.785  13.428   4.760 -0.4594  0.0873  0.0237
  273POPE   C1B 2842   4.629  13.109   5.893 -0.0839  0.2022  0.2533
  273POPE   C2B 2843   4.582  13.007   5.433 -0.0531  0.1769 -0.4309
  273POPE   C3B 2844   4.365  12.845   5.101  0.1840  0.2485 -0.1593
  273POPE   C4B 2845   4.264  12.586   4.801  0.2765  0.0323  0.0592
  274CHOL   ROH 2846   0.674   7.508   6.001  0.0166 -0.1935 -0.0149
  274CHOL    R1 2847   0.690   7.473   5.720  0.0414 -0.0987 -0.0258
  274CHOL    R2 2848   0.543   7.625   5.542 -0.0423 -0.1286  0.0193
  274CHOL    R3 2849   0.787   7.675   5.433 -0.0693  0.0445  0.0360
  274CHOL    R4 2850   0.595   7.757   5.227 -0.1178 -0.2682 -0.0526
  274CHOL    R5 2851   0.761   7.618   5.202  0.0263 -0.1233  0.0632
  274CHOL    C1 2852   0.854   7.881   4.942 -0.1871 -0.1871 -0.0788
  274CHOL    C2 2853   0.862   8.094   4.735 -0.0955  0.3062  0.1842
  275CHOL   ROH 2854  10.976   1.659   6.483  0.0989 -0.2451  0.1068
  275CHOL    R1 2855  10.875   1.543   6.245 -0.2261 -0.0011  0.1218
  275CHOL    R2 2856  10.783   1.695   6.034  0.0398  0.2357  0.1622
  275CHOL    R3 2857  10.962   1.547   5.892 -0.3118 -0.1439  0.0962
  275CHOL    R4 2858  10.822   1.709   5.691  0.0857  0.3050  0.1703
  275CHOL    R5 2859  10.845   1.492   5.690 -0.4478  0.2369  0.0656
  275CHOL    C1 2860  11.012   1.578   5.357 -0.2176 -0.0111  0.1131
  275CHOL    C2 2861  11.261   1.536   5.042 -0.2314 -0.0950 -0.1436
  276CHOL   ROH 2862   2.564   4.266   5.723  0.2282 -0.1142 -0.0353
  276CHOL    R1 2863   2.695   4.176   5.489  0.1711 -0.0983 -0.0743
  276CHOL    R2 2864   2.568   4.158   5.244  0.0723 -0.2080 -0.0169
  276CHOL    R3 2865   2.776   4.312   5.162 -0.0364 -0.1231 -0.1360
  276CHOL    R4 2866   2.687   4.174   4.920 -0.1021 -0.1703 -0.0803
  276CHOL    R5 2867   2.889   4.179   5.000 -0.0633 -0.0803 -0.1890
  276CHOL    C1 2868   2.951   4.328   4.654 -0.3057 -0.0687 -0.2291
  276CHOL    C2 2869   3.394   4.260   4.754 -0.4083 -0.0049  0.0051
  277POPC   NC3 2870  13.786  10.902   6.508  0.1399 -0.1002  0.0637
  277POPC   PO4 2871  14.050  10.543   6.448 -0.1661  0.0274 -0.1058
  277POPC   GL1 2872  13.866  10.612   6.070  0.0449 -0.0161 -0.1143
  277POPC   GL2 2873  13.535  10.592   6.178 -0.1090  0.3594 -0.0795
  277POPC   C1A 2874  13.812  10.816   5.645  0.2213 -0.1190 -0.1609
  277POPC   D2A 2875  13.937  11.060   5.276 -0.0597  0.1115 -0.0935
  277POPC   C3A 2876  13.790  11.123   4.853 -0.2085 -0.2159 -0.4066
  277POPC   C4A 2877  13.608  11.198   4.495  0.1855 -0.0517  0.0596
  277POPC   C1B 2878  13.414  10.495   5.644  0.1507  0.2102 -0.1335
  277POPC   C2B 2879  13.311  10.504   5.241  0.3084 -0.3170  0.2751
  277POPC   C3B 2880  13.630  10.661   5.046 -0.3406 -0.0883  0.1594
  277POPC   C4B 2881  13.781  10.643   4.605 -0.2474  0.0220  0.1382
  278POPE   NH3 2882   2.561  10.910   6.741 -0.0279  0.0058  0.0152
  278POPE   PO4 2883   2.535  10.624   6.392 -0.1703 -0.1423  0.1360
  278POPE   GL1 2884   2.534  10.626   5.970 -0.0627  0.2928  0.0410
  278POPE   GL2 2885   2.378  10.275   6.017  0.1847  0.0431  0.3113
  278POPE   C1A 2886   2.375  10.582   5.575 -0.2230 -0.5055 -0.0298
  278POPE   D2A 2887   2.522  10.615   5.154 -0.3244  0.0341 -0.2485
  278POPE   C3A 2888   2.263  10.351   4.829 -0.0382 -0.2406 -0.3194
  278POPE   C4A 2889   2.253  10.180   4.354 -0.0226  0.3860  0.2095
  278POPE   C1B 2890   2.693  10.030   5.887 -0.1967  0.1958  0.2538
  278POPE   C2B 2891   2.703  10.141   5.434  0.4557 -0.0484 -0.0002
  278POPE   C3B 2892   2.833   9.908   5.103  0.0937  0.1573  0.1394
  278POPE   C4B 2893   2.832   9.700   4.715  0.0967  0.0513 -0.3652
  279POPE   NH3 2894   4.822   1.920   6.729 -0.0676 -0.2315 -0.0571
  279POPE   PO4 2895   5.177   1.753   6.625 -0.2910 -0.1089 -0.2502
  279POPE   GL1 2896   5.343   1.903   6.331 -0.1815  0.0497  0.0524
  279POPE   GL2 2897   5.267   2.177   6.211 -0.1191 -0.1712 -0.1977
  279POPE   C1A 2898   5.486   1.851   5.893  0.2120  0.0119  0.2641
  279POPE   D2A 2899   5.677   1.571   5.846 -0.1010  0.2858 -0.0766
  279POPE   C3A 2900   6.042   1.670   6.042 -0.2765 -0.0703  0.0755
  279POPE   C4A 2901   6.328   1.902   6.189 -0.0381 -0.0038 -0.2284
  279POPE   C1B 2902   5.180   2.269   5.817  0.2325 -0.1757 -0.1511
  279POPE   C2B 2903   5.183   2.226   5.373  0.0044 -0.1230  0.0650
  279POPE   C3B 2904   5.263   2.232   4.987  0.1451  0.0741  0.0951
  279POPE   C4B 2905   5.485   2.166   4.666  0.4279  0.2570 -0.0778
  280POPS   CNO 2906  12.645  13.307   6.809  0.1711 -0.5356 -0.1975
  280POPS   PO4 2907  12.964  13.002   6.729 -0.0257 -0.0537  0.1805
  280POPS   GL1 2908  12.994  13.082   6.303  0.0186  0.2122 -0.1738
  280POPS   GL2 2909  12.866  13.324   6.310  0.1987  0.0540  0.1178
  280POPS   C1A 2910  13.141  13.135   5.950  0.3293 -0.0890 -0.2282
  280POPS   D2A 2911  12.909  13.087   5.537 -0.0578  0.1261  0.1610
  280POPS   C3A 2912  12.837  13.349   5.235  0.2237  0.0402  0.1610
  280POPS   C4A 2913  12.920  13.320   4.698  0.2013  0.1546 -0.0650
  280POPS   C1B 2914  12.687  13.425   5.861 -0.1886 -0.1065  0.1555
  280POPS   C2B 2915  12.285  13.500   5.819  0.0955 -0.1460 -0.3331
  280POPS   C3B 2916  12.024  13.228   5.694 -0.1367  0.1728 -0.0983
  280POPS   C4B 2917  11.902  13.357   5.377 -0.2549 -0.0043  0.3923
  281POPC   NC3 2918   7.007  14.370   6.567 -0.3596  0.0545  0.0690
  281POPC   PO4 2919   7.487  14.284   6.483  0.1460 -0.0591 -0.4091
  281POPC   GL1 2920   7.754  14.375   6.228  0.2991  0.4606  0.0605
  281POPC   GL2 2921   7.995  14.586   6.119  0.1492 -0.1143 -0.1233
  281POPC   C1A 2922   7.895  14.231   5.795 -0.0675 -0.2953 -0.1696
  281POPC   D2A 2923   8.111  14.444   5.504  0.1796 -0.0186  0.2271
  281POPC   C3A 2924   8.050  14.569   5.093  0.0142  0.0348  0.1783
  281POPC   C4A 2925   8.267  14.423   4.673 -0.0717 -0.2262  0.2537
  281POPC   C1B 2926   7.683  14.689   5.794  0.1608 -0.1942  0.1072
  281POPC   C2B 2927   7.614  14.776   5.461  0.0387 -0.0552 -0.1006
  281POPC   C3B 2928   7.703  14.890   5.083 -0.0984 -0.2311  0.3457
  281POPC   C4B 2929   7.816  14.746   4.676  0.0376  0.1259 -0.2033
  282POPE   NH3 2930  13.524   9.700   6.701 -0.0220 -0.1837  0.1147
  282POPE   PO4 2931  13.967   9.579   6.507 -0.1443  0.1188 -0.1702
  282POPE   GL1 2932  14.021   9.584   6.028 -0.2128 -0.1922 -0.0340
  282POPE   GL2 2933  14.302   9.773   5.954  0.1396  0.0136  0.0458
  282POPE   C1A 2934  13.795   9.789   5.643  0.1880 -0.0001 -0.2200
  282POPE   D2A 2935  13.771   9.794   5.227  0.1278 -0.0366  0.1245
  282POPE   C3A 2936  14.070   9.660   5.069  0.1302  0.0757 -0.3518
  282POPE   C4A 2937  14.205   9.422   4.665 -0.2127  0.0916  0.3373
  282POPE   C1B 2938  14.096   9.442   5.509 -0.2512  0.2542  0.1160
  282POPE   C2B 2939  13.812   9.247   5.173  0.0897  0.2200  0.0236
  282POPE   C3B 2940  13.660   9.401   4.727 -0.0075  0.0254 -0.1278
  282POPE   C4B 2941  13.463   9.080   4.474  0.2425 -0.0432 -0.0724
  283POPC   NC3 2942   7.900  13.956   6.401 -0.2761 -0.1758 -0.1153
  283POPC   PO4 2943   8.171  13.732   6.347 -0.1959  0.3910  0.2226
  283POPC   GL1 2944   8.308  13.706   5.955 -0.1002  0.0542 -0.0293
  283POPC   GL2 2945   8.108  13.574   5.871 -0.1822 -0.1056 -0.1614
  283POPC   C1A 2946   8.250  13.934   5.523 -0.2534  0.1303 -0.4989
  283POPC   D2A 2947   8.272  14.129   5.143  0.0136 -0.0675 -0.3368
  283POPC   C3A 2948   7.939  14.088   4.845  0.0409 -0.1531 -0.0376
  283POPC   C4A 2949   7.473  13.946   4.863  0.1981  0.2863 -0.0454
  283POPC   C1B 2950   7.981  13.444   5.502  0.1492  0.1393  0.0602
  283POPC   C2B 2951   8.031  13.658   5.105 -0.1402  0.0024 -0.1681
  283POPC   C3B 2952   8.285  13.752   4.709  0.0981 -0.1415 -0.2945
  283POPC   C4B 2953   8.572  13.416   4.500 -0.1761 -0.1304  0.1385
  284POSM   NC3 2954  13.147   7.247   6.809  0.0224  0.2295  0.1239
  284POSM   PO4 2955  13.597   7.201   6.616 -0.0408  0.0563  0.0550
  284POSM   AM1 2956  13.955   6.967   6.357  0.0254  0.0029  0.2546
  284POSM   AM2 2957  14.052   7.139   6.161 -0.0754  0.2203 -0.0128
  284POSM   T1A 2958  14.150   6.745   5.929 -0.1181  0.1428 -0.3250
  284POSM   C2A 2959  14.339   6.780   5.572  0.0618 -0.0148 -0.1800
  284POSM   C3A 2960  14.642   7.021   5.339 -0.1534 -0.2913 -0.0382
  284POSM   C1B 2961  14.007   7.159   5.691  0.1364 -0.1547 -0.1539
  284POSM   D2B 2962  13.985   7.123   5.365  0.0636  0.2263  0.2671
  284POSM   C3B 2963  14.068   6.792   5.071 -0.1706  0.0430 -0.0484
  284POSM   C4B 2964  13.840   6.554   4.756  0.1930  0.1103  0.1559
  285CHOL   ROH 2965   6.019  13.976   6.249 -0.1028 -0.1350 -0.0255
  285CHOL    R1 2966   5.890  13.969   5.997 -0.0600 -0.0688 -0.0497
  285CHOL    R2 2967   5.916  14.171   5.810  0.0711 -0.0763 -0.0421
  285CHOL    R3 2968   5.992  13.966   5.648  0.0049 -0.1108 -0.0298
  285CHOL    R4 2969   5.927  14.186   5.465 -0.1631 -0.1887 -0.0570
  285CHOL    R5 2970   5.846  13.984   5.458 -0.1243 -0.2052  0.0614
  285CHOL    C1 2971   6.004  14.003   5.112 -0.3616 -0.2865 -0.0542
  285CHOL    C2 2972   6.053  14.154   4.728  0.2663  0.1511  0.1648
  286POPC   NC3 2973   0.346   9.555   6.806 -0.5528 -0.0204 -0.1174
  286POPC   PO4 2974   0.392   9.363   6.408  0.0818 -0.2536 -0.1627
  286POPC   GL1 2975   0.345   9.274   5.876  0.0595  0.4039  0.2350
  286POPC   GL2 2976   0.471   8.978   5.751  0.0790 -0.0712 -0.0959
  286POPC   C1A 2977   0.315   9.378   5.509  0.3088 -0.2353 -0.0402
  286POPC   D2A 2978   0.217   9.373   5.039  0.3232  0.2036 -0.1589
  286POPC   C3A 2979   0.176   9.103   4.720 -0.0057 -0.0654  0.1629
  286POPC   C4A 2980   0.292   8.699   4.602  0.1332  0.1145 -0.0016
  286POPC   C1B 2981   0.651   8.666   5.569  0.1251  0.2307  0.0349
  286POPC   C2B 2982   0.822   8.754   5.219 -0.0817  0.3285  0.2640
  286POPC   C3B 2983   0.776   8.581   4.768  0.0282  0.2809 -0.2971
  286POPC   C4B 2984   0.552   8.322   4.395 -0.0588 -0.0655 -0.1027
  287CHOL   ROH 2985   2.757   3.409   6.083  0.0179  0.2997 -0.0345
  287CHOL    R1 2986   2.797   3.449   5.806 -0.0388  0.2013 -0.0567
  287CHOL    R2 2987   2.929   3.265   5.646 -0.0467  0.1588 -0.0125
  287CHOL    R3 2988   2.702   3.278   5.498 -0.0752  0.0757  0.0231
  287CHOL    R4 2989   2.900   3.162   5.318 -0.0635  0.1277 -0.0015
  287CHOL    R5 2990   2.776   3.336   5.279 -0.1273  0.0865  0.0070
  287CHOL    C1 2991   2.669   3.114   4.988 -0.1000  0.0317  0.0383
  287CHOL    C2 2992   2.693   2.943   4.600 -0.0483 -0.0009 -0.0157
  288POSM   NC3 2993  11.149  12.912   6.878 -0.0366  0.1207 -0.0457
  288POSM   PO4 2994  10.683  12.702   6.679 -0.2718  0.0622 -0.0265
  288POSM   AM1 2995  10.956  12.740   6.437 -0.1184  0.1014  0.0470
  288POSM   AM2 2996  11.177  12.979   6.295  0.0454 -0.2277 -0.1888
  288POSM   T1A 2997  10.748  12.742   6.017  0.2982 -0.1478  0.2703
  288POSM   C2A 2998  10.709  12.993   5.653 -0.3522 -0.0010 -0.1772
  288POSM   C3A 2999  11.013  12.949   5.346 -0.0264 -0.1868  0.0155
  288POSM   C1B 3000  11.153  12.923   5.799  0.0737  0.1210  0.1707
  288POSM   D2B 3001  11.497  13.118   5.608 -0.2125  0.1993 -0.1954
  288POSM   C3B 3002  11.399  13.186   5.226 -0.3734 -0.0426  0.1276
  288POSM   C4B 3003  11.314  13.282   4.845 -0.0611  0.1444  0.1860
  289CHOL   ROH 3004  11.814   2.195   6.240  0.1718 -0.1181  0.1136
  289CHOL    R1 3005  11.853   2.048   6.000 -0.1172 -0.0804  0.0404
  289CHOL    R2 3006  11.706   2.096   5.771 -0.1074  0.2477  0.0933
  289CHOL    R3 3007  11.952   2.123   5.658 -0.0886 -0.0840  0.0473
  289CHOL    R4 3008  11.767   2.130   5.432 -0.1037  0.0155  0.0691
  289CHOL    R5 3009  11.938   1.999   5.454 -0.2499 -0.1675  0.1100
  289CHOL    C1 3010  12.033   2.175   5.130 -0.0839 -0.4311  0.0119
  289CHOL    C2 3011  12.301   2.041   4.884  0.1726 -0.0791  0.0527
  290POPC   NC3 3012   7.100  13.877   6.518  0.3424  0.0087  0.0243
  290POPC   PO4 3013   7.463  13.725   6.378 -0.3205 -0.0295  0.3255
  290POPC   GL1 3014   7.657  13.781   5.953  0.1056  0.0150  0.1800
  290POPC   GL2 3015   7.383  13.979   5.878  0.0175  0.1624  0.1666
  290POPC   C1A 3016   7.650  13.844   5.437  0.1458 -0.1423 -0.1730
  290POPC   D2A 3017   7.799  14.108   5.314  0.1877 -0.4279  0.1215
  290POPC   C3A 3018   7.551  14.373   5.092 -0.1787 -0.1946  0.1060
  290POPC   C4A 3019   7.243  14.812   4.836  0.1810  0.1136 -0.3904
  290POPC   C1B 3020   7.384  14.351   5.619 -0.0600 -0.1493 -0.0162
  290POPC   C2B 3021   7.138  14.644   5.338  0.1784 -0.2453 -0.0208
  290POPC   C3B 3022   6.872  14.609   5.074 -0.1460 -0.1899 -0.3181
  290POPC   C4B 3023   6.622  14.693   4.699  0.0269 -0.2141  0.1704
  291POSM   NC3 3024  10.051   2.127   7.150  0.2164 -0.1871  0.0672
  291POSM   PO4 3025   9.907   2.470   6.895 -0.1088 -0.2999  0.0986
  291POSM   AM1 3026   9.796   2.192   6.548  0.0806 -0.0799 -0.1285
  291POSM   AM2 3027   9.396   2.304   6.530 -0.2693  0.3810 -0.0282
  291POSM   T1A 3028   9.778   1.954   6.153 -0.1336  0.0816 -0.1831
  291POSM   C2A 3029   9.514   1.871   5.784 -0.3495  0.0156 -0.3017
  291POSM   C3A 3030   9.381   2.058   5.462  0.1334 -0.1198 -0.2315
  291POSM   C1B 3031   9.174   2.048   6.138  0.1156  0.1697  0.0698
  291POSM   D2B 3032   8.760   1.946   5.835 -0.1545 -0.0105 -0.1804
  291POSM   C3B 3033   8.638   1.793   5.401  0.1059 -0.5577 -0.0027
  291POSM   C4B 3034   8.741   1.663   4.990  0.0199  0.2153  0.1686
  292CHOL   ROH 3035  14.202   6.202   5.871 -0.0122 -0.0878  0.0007
  292CHOL    R1 3036  14.093   6.174   5.611 -0.0246 -0.0212 -0.0013
  292CHOL    R2 3037  14.168   6.335   5.400  0.1160 -0.1006 -0.0108
  292CHOL    R3 3038  14.218   6.097   5.279 -0.0732 -0.1530  0.0101
  292CHOL    R4 3039  14.139   6.277   5.061  0.1044 -0.0958 -0.0109
  292CHOL    R5 3040  14.052   6.083   5.106 -0.0686 -0.0208 -0.0080
  292CHOL    C1 3041  14.170   6.020   4.749 -0.0801 -0.1422  0.0086
  292CHOL    C2 3042  13.952   5.858   4.535  0.0273 -0.2214 -0.0101
  293POSM   NC3 3043  12.672  11.755   6.542  0.0308 -0.1569  0.1674
  293POSM   PO4 3044  12.245  11.856   6.597  0.0570  0.0478  0.0976
  293POSM   AM1 3045  12.446  12.085   6.202  0.2083  0.3799 -0.0315
  293POSM   AM2 3046  12.708  12.211   6.203 -0.0462  0.0972 -0.0587
  293POSM   T1A 3047  12.335  12.485   5.934  0.1561  0.0622  0.0520
  293POSM   C2A 3048  12.501  12.935   5.810  0.1210 -0.1775 -0.0263
  293POSM   C3A 3049  12.422  13.096   5.408  0.1508  0.0689  0.1030
  293POSM   C1B 3050  12.612  12.106   5.778  0.0411  0.0763 -0.0109
  293POSM   D2B 3051  12.434  11.931   5.434  0.0405 -0.0355  0.1485
  293POSM   C3B 3052  12.447  12.171   5.109 -0.0814 -0.0882 -0.0305
  293POSM   C4B 3053  12.332  12.630   5.164  0.0626 -0.2077  0.0606
  294CHOL   ROH 3054   9.189  14.461   6.032  0.2492  0.1620 -0.0170
  294CHOL    R1 3055   9.260  14.459   5.759  0.0797  0.0318 -0.0626
  294CHOL    R2 3056   9.236  14.234   5.600 -0.1914  0.0053  0.0122
  294CHOL    R3 3057   9.091  14.401   5.442 -0.1613  0.0733  0.0560
  294CHOL    R4 3058   9.274  14.265   5.258 -0.2225  0.0448  0.0124
  294CHOL    R5 3059   9.248  14.480   5.279 -0.1558  0.0508  0.0491
  294CHOL    C1 3060   9.161  14.439   4.910 -0.2123  0.1316  0.0537
  294CHOL    C2 3061   9.301  14.578   4.634 -0.2936 -0.0882  0.0429
  295POPC   NC3 3062   2.291   3.499   6.422 -0.2654 -0.2119  0.4850
  295POPC   PO4 3063   2.356   3.877   6.645  0.2025  0.1130  0.1166
  295POPC   GL1 3064   2.436   3.980   6.189 -0.2331  0.0175 -0.0500
  295POPC   GL2 3065   2.380   3.761   5.952 -0.0505  0.3053  0.0025
  295POPC   C1A 3066   2.837   3.961   5.912  0.1320 -0.0211 -0.1160
  295POPC   D2A 3067   3.145   3.813   5.594  0.0296 -0.2315  0.0782
  295POPC   C3A 3068   2.997   3.792   5.265 -0.2859 -0.0767 -0.0122
  295POPC   C4A 3069   3.187   3.838   4.859  0.0803 -0.0038 -0.0117
  295POPC   C1B 3070   2.440   3.717   5.544  0.0441  0.2270 -0.2176
  295POPC   C2B 3071   2.479   3.710   5.175  0.0396  0.3062 -0.0924
  295POPC   C3B 3072   2.721   3.678   4.872 -0.3239  0.0577  0.0137
  295POPC   C4B 3073   2.774   3.919   4.480  0.0691  0.1710  0.5492
  296POSM   NC3 3074   4.465  14.087   6.948 -0.1644  0.2432  0.1055
  296POSM   PO4 3075   4.706  14.385   6.634  0.3497  0.0815 -0.2778
  296POSM   AM1 3076   4.572  14.046   6.375  0.0807  0.0339  0.1888
  296POSM   AM2 3077   4.744  13.815   6.547 -0.1237  0.2360 -0.0500
  296POSM   T1A 3078   4.442  13.981   5.993  0.5293 -0.0043  0.2408
  296POSM   C2A 3079   4.359  13.951   5.505  0.2059  0.2187  0.1356
  296POSM   C3A 3080   4.111  13.963   5.085  0.1618 -0.5945 -0.0247
  296POSM   C1B 3081   4.752  13.583   6.162  0.2131 -0.0864 -0.3239
  296POSM   D2B 3082   4.568  13.556   5.718 -0.1773 -0.1506 -0.1541
  296POSM   C3B 3083   4.618  13.596   5.275  0.1391 -0.1124 -0.1466
  296POSM   C4B 3084   4.771  13.146   4.968  0.1237 -0.2172  0.0192
  297POPC   NC3 3085   0.897   8.159   6.590 -0.1165 -0.1796  0.0349
  297POPC   PO4 3086   0.778   7.680   6.500  0.0791  0.1860  0.0181
  297POPC   GL1 3087   0.943   7.953   6.135 -0.2557  0.0574  0.1561
  297POPC   GL2 3088   0.623   8.102   6.062  0.3034  0.1216 -0.1602
  297POPC   C1A 3089   1.122   7.834   5.754 -0.3115 -0.1344 -0.1974
  297POPC   D2A 3090   1.215   7.965   5.287 -0.1311 -0.2270 -0.0900
  297POPC   C3A 3091   1.333   7.888   4.795 -0.0258 -0.0497  0.1484
  297POPC   C4A 3092   1.606   7.590   4.641  0.1781 -0.0525 -0.0659
  297POPC   C1B 3093   0.719   8.160   5.636  0.0603  0.0243 -0.0296
  297POPC   C2B 3094   0.666   8.263   5.233 -0.0552  0.2987 -0.2558
  297POPC   C3B 3095   0.404   8.390   4.982  0.0784 -0.0011  0.0988
  297POPC   C4B 3096  -0.028   8.426   4.829 -0.0915  0.0979  0.4966
  298POPE   NH3 3097   2.013  10.243   6.406 -0.0224 -0.1396  0.1344
  298POPE   PO4 3098   1.991   9.772   6.382 -0.0060  0.0182  0.1609
  298POPE   GL1 3099   1.931   9.986   6.052 -0.2104  0.0134  0.3471
  298POPE   GL2 3100   1.665   9.886   5.887  0.1150  0.3446 -0.1901
  298POPE   C1A 3101   2.164  10.009   5.693  0.3364 -0.0577  0.0545
  298POPE   D2A 3102   2.250   9.990   5.213  0.1031 -0.0381 -0.0726
  298POPE   C3A 3103   2.032   9.538   5.101 -0.0990 -0.0383  0.0975
  298POPE   C4A 3104   1.803   9.427   4.632  0.0425  0.1452 -0.0923
  298POPE   C1B 3105   1.749   9.802   5.425 -0.0251 -0.0322  0.0985
  298POPE   C2B 3106   1.638   9.890   4.934  0.1853 -0.2073 -0.0233
  298POPE   C3B 3107   1.468   9.901   4.512  0.1980 -0.2651  0.0726
  298POPE   C4B 3108   1.408   9.577   4.237  0.0152  0.1662  0.1510
  299POSM   NC3 3109   5.462  14.872   7.027  0.2741  0.0746 -0.2840
  299POSM   PO4 3110   5.765  15.146   6.858  0.1690 -0.3042  0.1529
  299POSM   AM1 3111   5.739  15.291   6.461  0.1750 -0.2693  0.0373
  299POSM   AM2 3112   5.996  15.294   6.295  0.1240 -0.1004 -0.0525
  299POSM   T1A 3113   5.642  15.336   6.003  0.1588 -0.0216 -0.1505
  299POSM   C2A 3114   5.485  15.441   5.657  0.1321 -0.3071 -0.0150
  299POSM   C3A 3115   5.622  15.705   5.258 -0.2248 -0.0770  0.1591
  299POSM   C1B 3116   6.059  15.079   5.931 -0.0752  0.3041  0.0849
  299POSM   D2B 3117   5.813  15.150   5.582  0.0013  0.2190  0.0663
  299POSM   C3B 3118   5.921  15.288   5.305 -0.1666 -0.1833  0.0975
  299POSM   C4B 3119   5.929  15.428   4.855  0.2074  0.2635  0.0388
  300CHOL   ROH 3120   4.741   2.345   6.149  0.2039  0.1983 -0.0079
  300CHOL    R1 3121   4.706   2.218   5.898  0.3351  0.0689  0.0374
  300CHOL    R2 3122   4.521   2.305   5.712  0.1451 -0.2719  0.0599
  300CHOL    R3 3123   4.738   2.312   5.548  0.0963  0.0213  0.0019
  300CHOL    R4 3124   4.509   2.302   5.366  0.0560 -0.2994  0.0628
  300CHOL    R5 3125   4.680   2.168   5.366  0.2438 -0.0671  0.0214
  300CHOL    C1 3126   4.705   2.307   5.012 -0.0417 -0.0403  0.0100
  300CHOL    C2 3127   4.515   2.147   4.776 -0.0221 -0.2965  0.1129
  301POPC   NC3 3128  12.828   7.743   6.610  0.0654 -0.2842 -0.1189
  301POPC   PO4 3129  12.800   8.216   6.790  0.5718  0.0291 -0.0308
  301POPC   GL1 3130  12.975   8.238   6.445 -0.3087 -0.0571 -0.0212
  301POPC   GL2 3131  12.954   8.010   6.218 -0.0580 -0.0299  0.0517
  301POPC   C1A 3132  13.054   8.501   6.138  0.2098  0.0460  0.1494
  301POPC   D2A 3133  13.275   8.843   5.968  0.1825  0.1609 -0.0139
  301POPC   C3A 3134  13.627   8.952   6.052 -0.1357  0.0391 -0.0269
  301POPC   C4A 3135  13.781   9.199   5.767 -0.0535  0.0690  0.0077
  301POPC   C1B 3136  12.921   7.877   5.837 -0.0540 -0.1028 -0.0619
  301POPC   C2B 3137  12.861   7.949   5.281  0.0085 -0.3245 -0.3108
  301POPC   C3B 3138  13.008   8.055   4.906 -0.0710  0.1098  0.2935
  301POPC   C4B 3139  13.174   8.221   4.564 -0.0381  0.1126 -0.2075
  302POPS   CNO 3140   9.208  14.279   6.570  0.1615 -0.1030  0.0002
  302POPS   PO4 3141   8.817  14.393   6.755 -0.1210 -0.0502 -0.1485
  302POPS   GL1 3142   8.780  14.354   6.290  0.0689 -0.0545  0.2076
  302POPS   GL2 3143   8.958  14.033   6.171  0.0650 -0.5249 -0.2165
  302POPS   C1A 3144   8.631  14.292   5.874  0.2478 -0.0726  0.0614
  302POPS   D2A 3145   8.777  14.043   5.567 -0.0208  0.1805  0.1447
  302POPS   C3A 3146   8.772  14.126   5.180  0.1477 -0.1764 -0.1073
  302POPS   C4A 3147   8.700  14.253   4.790  0.2584  0.0838  0.0930
  302POPS   C1B 3148   9.160  13.798   5.778  0.1302  0.0495 -0.1658
  302POPS   C2B 3149   9.244  13.757   5.397 -0.3414 -0.0510  0.2193
  302POPS   C3B 3150   9.317  13.815   5.074  0.1524 -0.0088 -0.1169
  302POPS   C4B 3151   9.640  14.126   4.714 -0.0825  0.0176  0.2068
  303POPS   CNO 3152  11.865   1.919   7.073  0.0776 -0.2668  0.0936
  303POPS   PO4 3153  11.767   1.555   6.985 -0.0305  0.2795 -0.2374
  303POPS   GL1 3154  11.697   1.773   6.542 -0.2443  0.1829  0.1027
  303POPS   GL2 3155  11.452   1.967   6.408  0.4282 -0.3311 -0.0466
  303POPS   C1A 3156  11.836   1.611   6.147  0.0843 -0.1448 -0.0196
  303POPS   D2A 3157  11.594   1.587   5.848 -0.0458  0.0242 -0.0127
  303POPS   C3A 3158  11.562   1.615   5.408  0.2532 -0.0721 -0.0719
  303POPS   C4A 3159  11.708   1.796   5.068  0.0547 -0.0979 -0.0339
  303POPS   C1B 3160  11.231   1.881   6.026  0.0573  0.0663  0.1973
  303POPS   C2B 3161  11.262   2.009   5.604  0.2595  0.0054 -0.0041
  303POPS   C3B 3162  11.241   2.039   5.201  0.0510  0.2028 -0.4560
  303POPS   C4B 3163  11.186   2.310   4.867  0.0794  0.0020 -0.2615
  304POPE   NH3 3164   9.648   1.693   6.597  0.1754  0.1150  0.3020
  304POPE   PO4 3165   9.655   1.301   6.811 -0.0449 -0.0446  0.3089
  304POPE   GL1 3166   9.655   1.071   6.427 -0.2941  0.1450 -0.1498
  304POPE   GL2 3167   9.715   1.276   6.315  0.0931  0.0326  0.2210
  304POPE   C1A 3168   9.551   0.841   6.115  0.2303  0.0513 -0.1364
  304POPE   D2A 3169   9.596   1.066   5.681  0.2544  0.3374 -0.2661
  304POPE   C3A 3170   9.275   1.109   5.460  0.0853 -0.0675  0.0538
  304POPE   C4A 3171   9.126   1.300   5.104 -0.1232  0.2704 -0.2225
  304POPE   C1B 3172   9.987   1.084   6.009 -0.0450 -0.2248  0.1343
  304POPE   C2B 3173  10.247   0.813   5.727 -0.1850 -0.0158  0.0851
  304POPE   C3B 3174  10.375   0.731   5.333  0.1347 -0.1172 -0.1555
  304POPE   C4B 3175  10.445   0.509   4.873  0.1024  0.0709  0.0705
  305CHOL   ROH 3176  12.891   3.630   6.240  0.0544 -0.1999  0.0146
  305CHOL    R1 3177  13.054   3.731   6.032  0.1125 -0.1093  0.1035
  305CHOL    R2 3178  13.044   3.633   5.774  0.2544 -0.0647  0.0790
  305CHOL    R3 3179  13.001   3.894   5.711  0.1980 -0.0658  0.1116
  305CHOL    R4 3180  13.110   3.776   5.466  0.0380 -0.0512  0.0366
  305CHOL    R5 3181  13.186   3.952   5.569  0.0982 -0.0505 -0.0118
  305CHOL    C1 3182  13.110   4.104   5.228 -0.1409 -0.0444  0.0425
  305CHOL    C2 3183  13.096   4.220   4.834 -0.0121  0.0064  0.2243
  306POPC   NC3 3184  13.253   4.312   6.928 -0.0426 -0.1899  0.2013
  306POPC   PO4 3185  13.119   3.951   6.971 -0.0367 -0.0909  0.1364
  306POPC   GL1 3186  13.083   4.054   6.530  0.0590  0.1029  0.1435
  306POPC   GL2 3187  13.364   4.005   6.355 -0.0057 -0.1212 -0.0764
  306POPC   C1A 3188  12.949   4.275   6.214 -0.2110 -0.0207 -0.2471
  306POPC   D2A 3189  13.060   4.447   5.808  0.0539 -0.1004 -0.0730
  306POPC   C3A 3190  12.834   4.470   5.434 -0.0349 -0.0799 -0.3608
  306POPC   C4A 3191  12.624   4.500   5.126 -0.1808 -0.0414  0.1040
  306POPC   C1B 3192  13.432   4.260   6.016  0.2442 -0.0545 -0.1540
  306POPC   C2B 3193  13.428   4.364   5.529  0.1149  0.2457  0.2118
  306POPC   C3B 3194  13.535   4.187   4.996  0.0405  0.1151 -0.1860
  306POPC   C4B 3195  13.675   3.994   4.582  0.1434  0.1621  0.0034
  307CHOL   ROH 3196  12.155  13.904   6.124  0.2522 -0.2637 -0.1813
  307CHOL    R1 3197  11.985  13.885   5.898  0.0827 -0.1718 -0.0640
  307CHOL    R2 3198  12.029  14.029   5.667 -0.0767 -0.0945 -0.0472
  307CHOL    R3 3199  12.019  13.784   5.550 -0.1826 -0.0530 -0.1268
  307CHOL    R4 3200  12.101  13.966   5.335  0.2346 -0.0662  0.0112
  307CHOL    R5 3201  11.933  13.826   5.331  0.1013  0.0944 -0.2143
  307CHOL    C1 3202  12.132  13.698   5.032  0.3165 -0.0107 -0.0295
  307CHOL    C2 3203  12.309  13.896   4.905  0.1810  0.0644 -0.0545
  308POPE   NH3 3204   1.630   5.488   6.090  0.0359  0.1353 -0.2959
  308POPE   PO4 3205   1.524   5.002   6.180 -0.1314  0.0699  0.0999
  308POPE   GL1 3206   1.383   4.768   5.773 -0.2819 -0.0830 -0.1257
  308POPE   GL2 3207   1.278   4.486   5.701  0.0006 -0.1087 -0.2130
  308POPE   C1A 3208   1.458   4.858   5.305 -0.2875  0.2855  0.0930
  308POPE   D2A 3209   1.570   5.190   5.014 -0.2498 -0.4301 -0.1840
  308POPE   C3A 3210   1.304   5.119   4.594 -0.1326 -0.2246 -0.0303
  308POPE   C4A 3211   0.915   5.344   4.539  0.0856  0.1969  0.1460
  308POPE   C1B 3212   1.086   4.131   5.513 -0.1491  0.1136  0.4815
  308POPE   C2B 3213   0.952   4.044   5.146  0.0836 -0.0048 -0.0303
  308POPE   C3B 3214   0.732   3.853   4.853  0.2532 -0.0182 -0.0712
  308POPE   C4B 3215   0.641   4.053   4.548 -0.1466 -0.4995 -0.2151
  309POSM   NC3 3216   1.854   6.121   6.828  0.2662  0.0186  0.1012
  309POSM   PO4 3217   1.678   6.110   6.347 -0.0886  0.4009  0.0258
  309POSM   AM1 3218   1.440   5.936   6.090  0.0763 -0.1527 -0.0415
  309POSM   AM2 3219   1.147   6.116   5.994  0.2020 -0.1279  0.1592
  309POSM   T1A 3220   1.357   5.750   5.732  0.0614 -0.2142 -0.0616
  309POSM   C2A 3221   1.360   5.462   5.408  0.2255 -0.4609  0.2045
  309POSM   C3A 3222   1.242   5.616   4.975  0.1411 -0.0333  0.2688
  309POSM   C1B 3223   1.057   6.138   5.587  0.1317  0.0814  0.2072
  309POSM   D2B 3224   1.294   6.145   5.161 -0.0071  0.1901  0.0412
  309POSM   C3B 3225   0.998   6.340   4.937 -0.1967 -0.0783 -0.0534
  309POSM   C4B 3226   0.775   6.331   4.608  0.2549  0.2835 -0.1808
  310POPS   CNO 3227  13.534  12.403   6.490  0.1992 -0.3296 -0.0686
  310POPS   PO4 3228  13.214  12.499   6.621  0.1501  0.2945  0.0511
  310POPS   GL1 3229  13.082  12.541   6.191 -0.1008  0.2717 -0.0413
  310POPS   GL2 3230  13.273  12.227   6.006  0.0798  0.1818  0.1146
  310POPS   C1A 3231  12.841  12.593   5.878  0.1477 -0.1825 -0.3028
  310POPS   D2A 3232  12.709  12.598   5.474 -0.1630 -0.1092  0.0300
  310POPS   C3A 3233  12.714  12.902   5.046 -0.3148  0.0340  0.1883
  310POPS   C4A 3234  12.385  12.887   4.608  0.0818 -0.3028 -0.0755
  310POPS   C1B 3235  13.101  12.252   5.650  0.2495  0.1706  0.1672
  310POPS   C2B 3236  12.956  12.249   5.272  0.0848  0.2173 -0.1851
  310POPS   C3B 3237  12.961  12.492   4.937  0.0447  0.2966 -0.2233
  310POPS   C4B 3238  12.865  12.700   4.586 -0.0439 -0.2233 -0.1277
  311POPC   NC3 3239  13.866   6.477   6.536  0.3500 -0.0294  0.1387
  311POPC   PO4 3240  14.237   6.478   6.345  0.0403  0.0343 -0.1830
  311POPC   GL1 3241  14.549   6.749   6.155  0.0853 -0.1868 -0.1255
  311POPC   GL2 3242  14.942   6.660   6.117  0.2190  0.0149 -0.1148
  311POPC   C1A 3243  14.600   7.141   5.887 -0.3689  0.0768 -0.2327
  311POPC   D2A 3244  14.321   7.533   5.929  0.1996 -0.1302  0.3738
  311POPC   C3A 3245  14.459   8.030   5.676 -0.1035 -0.2649 -0.1618
  311POPC   C4A 3246  14.898   8.119   5.528  0.1202 -0.1013 -0.1799
  311POPC   C1B 3247  15.032   6.787   5.719  0.1751  0.1870  0.0148
  311POPC   C2B 3248  15.059   6.686   5.279 -0.0090 -0.0906 -0.1568
  311POPC   C3B 3249  15.033   6.664   4.816  0.3393 -0.1234 -0.1669
  311POPC   C4B 3250  15.289   6.634   4.400  0.1020 -0.3560  0.0060
  312POPS   CNO 3251   2.929  12.238   6.945 -0.2449 -0.2918  0.0078
  312POPS   PO4 3252   2.741  12.372   6.643 -0.1368 -0.0792  0.0172
  312POPS   GL1 3253   2.460  12.387   6.266  0.2882  0.2597 -0.1666
  312POPS   GL2 3254   2.399  12.636   6.234 -0.0164 -0.1340 -0.3715
  312POPS   C1A 3255   2.440  12.301   5.873  0.1799  0.2145  0.2664
  312POPS   D2A 3256   2.476  12.323   5.445  0.0303 -0.1459 -0.0161
  312POPS   C3A 3257   2.362  12.032   5.257  0.0994 -0.3437  0.0784
  312POPS   C4A 3258   2.308  11.824   4.893  0.1582  0.1379  0.0588
  312POPS   C1B 3259   2.368  12.843   5.834 -0.1194 -0.0069  0.2474
  312POPS   C2B 3260   2.306  12.739   5.394 -0.1212 -0.2399  0.0909
  312POPS   C3B 3261   2.413  12.476   5.002  0.1201  0.0297  0.1165
  312POPS   C4B 3262   2.779  12.205   4.857  0.0385 -0.3037  0.2352
  313CHOL   ROH 3263  12.892   3.075   5.998 -0.0481 -0.0760 -0.0546
  313CHOL    R1 3264  13.015   3.183   5.767  0.1229 -0.0112  0.0650
  313CHOL    R2 3265  13.284   3.245   5.756  0.2231 -0.4291  0.1395
  313CHOL    R3 3266  13.279   3.084   5.537 -0.0334 -0.1800 -0.0469
  313CHOL    R4 3267  13.389   3.337   5.440  0.2961 -0.2011  0.2272
  313CHOL    R5 3268  13.219   3.230   5.357  0.1259  0.1170  0.1292
  313CHOL    C1 3269  13.445   3.240   5.051  0.0977  0.1656  0.1034
  313CHOL    C2 3270  13.709   3.455   4.727 -0.2083 -0.0453 -0.1228
  314CHOL   ROH 3271   2.358   3.136   6.093  0.0235  0.1993 -0.0873
  314CHOL    R1 3272   2.408   3.190   5.819 -0.0317 -0.1464 -0.1687
  314CHOL    R2 3273   2.347   3.010   5.619 -0.4721 -0.2352  0.0318
  314CHOL    R3 3274   2.210   3.220   5.516 -0.1563 -0.0771 -0.0824
  314CHOL    R4 3275   2.275   3.055   5.284 -0.3518 -0.2724 -0.0001
  314CHOL    R5 3276   2.318   3.267   5.308 -0.0519 -0.3188 -0.0842
  314CHOL    C1 3277   2.104   3.279   4.992  0.0147 -0.1457 -0.1258
  314CHOL    C2 3278   2.237   3.165   4.696  0.0437  0.0341  0.2629
  315CHOL   ROH 3279   1.960  12.540   6.067  0.1475  0.1368 -0.0033
  315CHOL    R1 3280   1.982  12.589   5.789  0.0437 -0.0394 -0.0427
  315CHOL    R2 3281   2.044  12.391   5.608 -0.0989 -0.1677  0.0536
  315CHOL    R3 3282   1.815  12.474   5.486 -0.1229 -0.1696  0.0950
  315CHOL    R4 3283   1.975  12.350   5.272 -0.0119  0.1192 -0.0023
  315CHOL    R5 3284   1.889  12.551   5.271 -0.1197  0.0801  0.1794
  315CHOL    C1 3285   1.721  12.404   4.961  0.0163  0.2845  0.0040
  315CHOL    C2 3286   2.008  12.294   4.697  0.1458  0.0006 -0.2289
  316POSM   NC3 3287   7.675   1.071   6.824  0.1987  0.2519 -0.1987
  316POSM   PO4 3288   7.267   1.090   6.707  0.1346 -0.3721  0.1190
  316POSM   AM1 3289   7.492   0.976   6.342  0.0019  0.2090  0.1632
  316POSM   AM2 3290   7.565   1.344   6.275  0.1657  0.4289  0.3589
  316POSM   T1A 3291   7.556   0.958   5.956  0.0345  0.0208  0.4700
  316POSM   C2A 3292   7.583   0.979   5.523 -0.4542  0.2529 -0.0180
  316POSM   C3A 3293   7.547   0.851   5.225  0.5116 -0.2750  0.2648
  316POSM   C1B 3294   7.488   1.461   5.922  0.0532  0.0406  0.1631
  316POSM   D2B 3295   7.568   1.497   5.460 -0.1862 -0.0226 -0.1278
  316POSM   C3B 3296   7.763   1.327   5.080  0.2442  0.0039  0.1619
  316POSM   C4B 3297   8.006   0.981   5.062 -0.0775  0.1653  0.0513
  317CHOL   ROH 3298   5.119  14.145   6.342  0.1644  0.2518  0.0186
  317CHOL    R1 3299   5.020  13.997   6.121  0.1525  0.1411  0.0971
  317CHOL    R2 3300   4.887  14.115   5.910  0.1191  0.0330  0.0543
  317CHOL    R3 3301   5.077  13.989   5.762  0.1155 -0.0195  0.0949
  317CHOL    R4 3302   4.853  14.027   5.578  0.2183  0.1557  0.0111
  317CHOL    R5 3303   4.954  13.839   5.622  0.0996  0.0901 -0.0062
  317CHOL    C1 3304   5.012  13.857   5.245  0.2728  0.1778  0.0241
  317CHOL    C2 3305   5.093  13.947   4.948 -0.1833 -0.1764  0.2352
  318POPE   NH3 3306   5.677  14.812   6.486  0.2956 -0.0293  0.0835
  318POPE   PO4 3307   5.676  14.294   6.703 -0.1082  0.1415 -0.0578
  318POPE   GL1 3308   5.649  14.278   6.298 -0.0457  0.1731  0.3941
  318POPE   GL2 3309   5.929  14.510   6.235 -0.2319  0.0940 -0.1187
  318POPE   C1A 3310   5.426  14.270   5.905  0.0629 -0.0777 -0.3155
  318POPE   D2A 3311   5.391  14.242   5.483  0.4052 -0.2184 -0.0575
  318POPE   C3A 3312   5.564  14.256   4.974  0.0910 -0.2604  0.0675
  318POPE   C4A 3313   5.602  14.374   4.543 -0.2935 -0.0372 -0.0148
  318POPE   C1B 3314   5.705  14.680   5.828  0.0853 -0.0821  0.1578
  318POPE   C2B 3315   5.717  14.671   5.388  0.0507  0.2242  0.3105
  318POPE   C3B 3316   5.399  14.663   5.179  0.0222 -0.2574  0.2778
  318POPE   C4B 3317   5.048  14.946   4.962  0.2519 -0.1102  0.5041
  319POPC   NC3 3318  14.077   8.612   7.135 -0.0013 -0.0428  0.0623
  319POPC   PO4 3319  14.001   8.583   6.648 -0.2077  0.0436  0.1661
  319POPC   GL1 3320  13.851   8.412   6.324 -0.2550  0.1540 -0.0223
  319POPC   GL2 3321  13.944   8.137   6.362  0.1821 -0.2717  0.1094
  319POPC   C1A 3322  13.691   8.470   5.881 -0.2265 -0.0047 -0.1939
  319POPC   D2A 3323  13.617   8.721   5.427  0.0383 -0.1255  0.1519
  319POPC   C3A 3324  13.640   8.782   5.033  0.0544 -0.1137  0.0732
  319POPC   C4A 3325  13.955   8.957   4.707 -0.0787  0.0997 -0.3373
  319POPC   C1B 3326  14.137   8.181   5.941  0.1148 -0.0133  0.1671
  319POPC   C2B 3327  14.077   8.338   5.545  0.2688  0.0504  0.1264
  319POPC   C3B 3328  13.808   8.271   5.141 -0.0409  0.3417 -0.0269
  319POPC   C4B 3329  13.655   7.894   4.878  0.2437  0.0585 -0.0328
  320POSM   NC3 3330  15.305   9.306   6.507 -0.0716 -0.1438  0.1052
  320POSM   PO4 3331  15.221   8.930   6.588 -0.1319  0.1193  0.0518
  320POSM   AM1 3332  15.414   8.831   6.236 -0.1065 -0.1777  0.2848
  320POSM   AM2 3333  15.682   8.880   6.215  0.0885  0.0203 -0.0581
  320POSM   T1A 3334  15.413   8.929   5.824 -0.2828  0.2212 -0.0614
  320POSM   C2A 3335  15.538   8.960   5.415  0.1777 -0.1197 -0.1583
  320POSM   C3A 3336  15.777   8.905   5.186 -0.1155 -0.1767  0.1736
  320POSM   C1B 3337  15.730   8.525   5.883 -0.0023 -0.0400 -0.2008
  320POSM   D2B 3338  15.689   8.471   5.454 -0.2117  0.0149 -0.0926
  320POSM   C3B 3339  15.334   8.337   5.290  0.0741 -0.0558 -0.1817
  320POSM   C4B 3340  15.094   8.058   5.010 -0.1195 -0.1893  0.3341
  321CHOL   ROH 3341  14.921   5.727   6.186  0.0020  0.0907 -0.1463
  321CHOL    R1 3342  14.971   5.520   6.000 -0.0252  0.1122 -0.1787
  321CHOL    R2 3343  14.769   5.390   5.864 -0.0522  0.0731 -0.1061
  321CHOL    R3 3344  14.914   5.463   5.646 -0.1555  0.1209 -0.1589
  321CHOL    R4 3345  14.687   5.313   5.537 -0.0239 -0.1478 -0.0623
  321CHOL    R5 3346  14.898   5.275   5.498  0.0072  0.0416 -0.0765
  321CHOL    C1 3347  14.775   5.337   5.142 -0.1044 -0.2317 -0.0862
  321CHOL    C2 3348  14.394   5.180   5.124  0.3019  0.4749 -0.1452
  322CHOL   ROH 3349   3.774   2.480   6.091  0.0000 -0.0933 -0.0523
  322CHOL    R1 3350   3.738   2.382   5.828 -0.0445 -0.0731 -0.0541
  322CHOL    R2 3351   3.523   2.454   5.671 -0.0113  0.0308 -0.0558
  322CHOL    R3 3352   3.717   2.523   5.493  0.0244 -0.0574 -0.0511
  322CHOL    R4 3353   3.485   2.452   5.327  0.0946 -0.2336 -0.0682
  322CHOL    R5 3354   3.687   2.370   5.311  0.1160 -0.1991  0.0529
  322CHOL    C1 3355   3.646   2.516   4.960  0.1898 -0.4703 -0.0708
  322CHOL    C2 3356   3.411   2.410   4.667 -0.1032  0.3144  0.0156
  323CHOL   ROH 3357   0.922   9.366   5.916 -0.0453  0.0318  0.0719
  323CHOL    R1 3358   0.805   9.385   5.659  0.0107  0.0114  0.0441
  323CHOL    R2 3359   0.954   9.387   5.427  0.0590 -0.0740  0.0710
  323CHOL    R3 3360   0.792   9.180   5.358  0.0189 -0.0460  0.0837
  323CHOL    R4 3361   0.868   9.302   5.103  0.1293 -0.1484  0.0719
  323CHOL    R5 3362   0.665   9.263   5.172  0.0990 -0.0673  0.0219
  323CHOL    C1 3363   0.666   9.059   4.850  0.1326 -0.1654  0.0843
  323CHOL    C2 3364   0.529   9.392   4.614 -0.2307  0.0531  0.0722
  324CHOL   ROH 3365   8.508   1.075   6.125  0.0505 -0.1795  0.1544
  324CHOL    R1 3366   8.592   0.930   5.896  0.0096 -0.2887  0.2055
  324CHOL    R2 3367   8.474   0.691   5.821 -0.2372 -0.1612  0.1457
  324CHOL    R3 3368   8.441   0.820   5.584  0.0497 -0.1173  0.1278
  324CHOL    R4 3369   8.412   0.536   5.518 -0.2408 -0.0720  0.1023
  324CHOL    R5 3370   8.547   0.678   5.423 -0.0245 -0.2298  0.1845
  324CHOL    C1 3371   8.344   0.568   5.119  0.0265  0.0211  0.0603
  324CHOL    C2 3372   8.181   0.644   4.785 -0.1242 -0.0924  0.1657
  325CHOL   ROH 3373   7.013   1.227   6.197  0.2008  0.2286 -0.0488
  325CHOL    R1 3374   6.995   1.182   5.918  0.0904  0.0853 -0.0202
  325CHOL    R2 3375   6.975   1.388   5.735  0.0941 -0.0037 -0.1252
  325CHOL    R3 3376   7.191   1.267   5.623  0.0181 -0.1334 -0.1323
  325CHOL    R4 3377   7.039   1.369   5.395  0.1374  0.0587 -0.1206
  325CHOL    R5 3378   7.107   1.164   5.424 -0.0261 -0.0015 -0.1794
  325CHOL    C1 3379   7.279   1.244   5.093  0.0913 -0.0267 -0.1245
  325CHOL    C2 3380   7.455   1.222   4.615 -0.1799 -0.0682  0.0020
  326POPC   NC3 3381   0.957   6.454   6.801 -0.1624  0.1622  0.1094
  326POPC   PO4 3382   1.138   6.803   6.583 -0.1513 -0.1814 -0.0136
  326POPC   GL1 3383   0.911   6.747   6.146  0.2484 -0.0017 -0.0026
  326POPC   GL2 3384   0.578   6.914   6.004  0.4889 -0.2189  0.1184
  326POPC   C1A 3385   1.006   7.013   5.779  0.0962  0.2965 -0.2999
  326POPC   D2A 3386   1.040   7.181   5.387 -0.0927  0.1299 -0.0494
  326POPC   C3A 3387   0.817   7.092   5.119  0.0638 -0.1827 -0.0797
  326POPC   C4A 3388   0.731   7.255   4.777  0.2654 -0.1654  0.2146
  326POPC   C1B 3389   0.504   6.999   5.548  0.0880 -0.2479 -0.4652
  326POPC   C2B 3390   0.326   7.283   5.232  0.3320  0.0719  0.0336
  326POPC   C3B 3391   0.277   7.455   4.922 -0.0385  0.0611 -0.0022
  326POPC   C4B 3392   0.508   7.705   4.651 -0.1017  0.0392  0.0480
  327CHOL   ROH 3393   2.908  12.676   6.055 -0.0376 -0.0205 -0.1456
  327CHOL    R1 3394   2.832  12.594   5.795 -0.0012  0.0821 -0.1889
  327CHOL    R2 3395   2.787  12.774   5.591  0.0762  0.1609 -0.1387
  327CHOL    R3 3396   2.969  12.620   5.459  0.0729  0.1685 -0.1521
  327CHOL    R4 3397   2.835  12.775   5.248  0.0028  0.1060 -0.1495
  327CHOL    R5 3398   2.858  12.558   5.256  0.0409  0.1129 -0.1162
  327CHOL    C1 3399   3.033  12.631   4.925 -0.0430  0.0812 -0.1683
  327CHOL    C2 3400   2.759  12.843   4.730  0.5503  0.1146 -0.1472
  328POPE   NH3 3401   2.348   5.403   6.426  0.1888  0.0553  0.2516
  328POPE   PO4 3402   2.022   5.195   6.200  0.0998 -0.0069  0.1808
  328POPE   GL1 3403   1.998   5.071   5.854 -0.1654 -0.0914  0.0321
  328POPE   GL2 3404   1.737   5.161   5.610  0.1600  0.1890 -0.0404
  328POPE   C1A 3405   2.390   4.749   5.701  0.3314  0.1276  0.1245
  328POPE   D2A 3406   2.390   4.606   5.343 -0.0942 -0.0734  0.0705
  328POPE   C3A 3407   2.285   4.478   4.887  0.1206 -0.0402  0.4545
  328POPE   C4A 3408   2.365   4.179   4.611  0.0942 -0.1824  0.0392
  328POPE   C1B 3409   1.956   4.864   5.366  0.1081 -0.0759  0.2184
  328POPE   C2B 3410   1.959   4.841   4.922 -0.1524  0.1570  0.2238
  328POPE   C3B 3411   2.279   4.845   4.527 -0.0410 -0.2397 -0.0729
  328POPE   C4B 3412   2.591   4.646   4.523  0.0341 -0.1389  0.2003
  329CHOL   ROH 3413  10.805  13.270   6.122  0.1636  0.0324 -0.1364
  329CHOL    R1 3414  10.891  13.469   5.939  0.0081  0.1090 -0.1272
  329CHOL    R2 3415  11.044  13.410   5.716  0.0576  0.2392 -0.1274
  329CHOL    R3 3416  10.844  13.540   5.585 -0.0445  0.0871 -0.1261
  329CHOL    R4 3417  11.027  13.451   5.373 -0.0659  0.0700 -0.1429
  329CHOL    R5 3418  10.955  13.654   5.406 -0.1497  0.0556 -0.2149
  329CHOL    C1 3419  10.830  13.597   5.051 -0.2335 -0.1712 -0.1507
  329CHOL    C2 3420  10.712  13.936   4.851 -0.1479  0.0636  0.1257
  330POPS   CNO 3421   1.738  11.331   7.005 -0.0165 -0.2937  0.0986
  330POPS   PO4 3422   1.452  11.209   6.894 -0.1303  0.1310  0.0025
  330POPS   GL1 3423   1.630  11.322   6.471  0.1113  0.2991  0.0066
  330POPS   GL2 3424   1.406  11.243   6.208  0.0416  0.2695  0.2694
  330POPS   C1A 3425   1.879  11.287   6.122 -0.0540  0.0659 -0.1812
  330POPS   D2A 3426   1.985  11.429   5.765 -0.1214 -0.1454  0.1343
  330POPS   C3A 3427   1.895  11.850   5.726  0.4170 -0.0555  0.0069
  330POPS   C4A 3428   1.622  12.229   5.920 -0.1456  0.1580 -0.4043
  330POPS   C1B 3429   1.493  11.390   5.788  0.1316 -0.2392  0.1114
  330POPS   C2B 3430   1.726  11.500   5.374  0.2419  0.3145 -0.0825
  330POPS   C3B 3431   1.530  11.627   5.045 -0.0649  0.0072  0.3279
  330POPS   C4B 3432   1.327  11.951   4.794  0.4058 -0.0831 -0.2707
  331CHOL   ROH 3433  12.409   2.915   6.026 -0.1035 -0.0074 -0.1817
  331CHOL    R1 3434  12.502   2.836   5.771  0.0772 -0.0255 -0.1106
  331CHOL    R2 3435  12.602   3.016   5.586 -0.0332 -0.0073 -0.1453
  331CHOL    R3 3436  12.817   2.850   5.588  0.1379  0.2098  0.0033
  331CHOL    R4 3437  12.833   2.989   5.331 -0.3121 -0.3518 -0.3712
  331CHOL    R5 3438  12.835   2.773   5.362 -0.0632 -0.2993  0.1385
  331CHOL    C1 3439  13.170   2.817   5.185 -0.3138 -0.3486 -0.3633
  331CHOL    C2 3440  13.265   2.797   4.875 -0.0788 -0.2327  0.0228
  332POPC   NC3 3441  15.376  11.009   6.545  0.1432  0.2162  0.1058
  332POPC   PO4 3442  15.769  11.185   6.499 -0.0401 -0.3472  0.2147
  332POPC   GL1 3443  15.606  11.147   6.045  0.0829  0.5231 -0.0504
  332POPC   GL2 3444  15.346  11.283   6.033  0.0827 -0.0384  0.4970
  332POPC   C1A 3445  15.529  11.457   5.583  0.0014 -0.0039 -0.3323
  332POPC   D2A 3446  15.550  11.488   5.102 -0.4672 -0.4215 -0.2430
  332POPC   C3A 3447  15.260  11.474   4.828  0.3716  0.0207  0.1440
  332POPC   C4A 3448  14.969  11.278   4.477 -0.0873  0.0151 -0.1011
  332POPC   C1B 3449  15.157  11.182   5.689 -0.0724  0.2576 -0.1913
  332POPC   C2B 3450  15.080  11.196   5.200  0.0676 -0.0966 -0.0667
  332POPC   C3B 3451  14.939  10.945   4.837 -0.1262  0.2805 -0.1827
  332POPC   C4B 3452  14.657  10.718   4.522 -0.2227  0.2373 -0.0471
  333CHOL   ROH 3453   5.112   1.419   6.207  0.1156 -0.1388  0.1440
  333CHOL    R1 3454   5.217   1.326   5.962  0.0816 -0.0419  0.0920
  333CHOL    R2 3455   5.056   1.252   5.749  0.0499 -0.0124  0.1038
  333CHOL    R3 3456   5.207   1.432   5.613 -0.0187  0.0624  0.1261
  333CHOL    R4 3457   5.033   1.313   5.410 -0.0049  0.0594  0.1203
  333CHOL    R5 3458   5.250   1.326   5.403 -0.0114  0.1245  0.0980
  333CHOL    C1 3459   5.163   1.518   5.085 -0.1013  0.1714  0.1508
  333CHOL    C2 3460   5.346   1.715   4.791  0.0532  0.2359  0.1538
  334POPC   NC3 3461  14.081  11.717   6.962 -0.0461 -0.2427  0.1815
  334POPC   PO4 3462  13.962  11.378   6.708 -0.1213  0.1251  0.0439
  334POPC   GL1 3463  14.091  11.351   6.337  0.2418 -0.1546 -0.0299
  334POPC   GL2 3464  14.419  11.091   6.281 -0.0776 -0.1344 -0.0919
  334POPC   C1A 3465  13.914  11.459   5.992  0.2100  0.2195  0.0777
  334POPC   D2A 3466  13.696  11.389   5.601  0.1836 -0.2192  0.4692
  334POPC   C3A 3467  13.834  11.556   5.167 -0.0841 -0.0477 -0.0674
  334POPC   C4A 3468  13.763  11.642   4.647  0.2496  0.1333  0.2610
  334POPC   C1B 3469  14.337  11.126   5.825 -0.1004 -0.0660  0.3054
  334POPC   C2B 3470  14.241  11.429   5.502 -0.0394  0.2016  0.1982
  334POPC   C3B 3471  14.273  11.359   4.993  0.2421  0.2893  0.0599
  334POPC   C4B 3472  14.268  10.874   4.844  0.2216 -0.2667  0.2468
  335POPE   NH3 3473   8.376   0.883   6.600  0.1664  0.1893 -0.5108
  335POPE   PO4 3474   8.400   0.495   6.684  0.2294 -0.1888  0.2013
  335POPE   GL1 3475   8.562   0.456   6.234 -0.0187  0.0438 -0.0619
  335POPE   GL2 3476   8.786   0.670   6.340 -0.1255  0.2640  0.0014
  335POPE   C1A 3477   8.681   0.243   5.881 -0.1373  0.2156  0.1089
  335POPE   D2A 3478   8.813   0.241   5.487 -0.0831 -0.0313  0.0358
  335POPE   C3A 3479   8.698   0.203   5.095  0.2564  0.0479 -0.1175
  335POPE   C4A 3480   8.614   0.351   4.750 -0.0515  0.1099 -0.0585
  335POPE   C1B 3481   9.000   0.701   5.915 -0.3996  0.2243 -0.1789
  335POPE   C2B 3482   9.007   0.676   5.578  0.0968 -0.2045 -0.3628
  335POPE   C3B 3483   8.972   0.624   5.146  0.3398 -0.0792 -0.0289
  335POPE   C4B 3484   9.155   0.870   4.915 -0.3933  0.0258  0.2553
  336POSM   NC3 3485   0.629  10.289   6.675 -0.0595  0.0568  0.3165
  336POSM   PO4 3486   0.184  10.240   6.369 -0.1524 -0.2549 -0.1832
  336POSM   AM1 3487  -0.061  10.479   6.080 -0.1902  0.2218  0.0928
  336POSM   AM2 3488  -0.176  10.755   6.140  0.2802 -0.1377 -0.3258
  336POSM   T1A 3489  -0.162  10.271   5.807 -0.2595  0.1538 -0.0512
  336POSM   C2A 3490  -0.261  10.304   5.488  0.1977  0.3216  0.3278
  336POSM   C3A 3491  -0.235  10.282   5.100  0.0682 -0.0515 -0.3474
  336POSM   C1B 3492  -0.043  10.762   5.710  0.1651  0.0169  0.2574
  336POSM   D2B 3493   0.195  11.021   5.388 -0.0882  0.1863 -0.0753
  336POSM   C3B 3494   0.139  11.040   4.924 -0.1737 -0.1318 -0.2310
  336POSM   C4B 3495   0.043  11.035   4.526 -0.0339  0.2250  0.1684
  337POPE   NH3 3496  14.912   6.051   6.573  0.0842  0.0394 -0.0015
  337POPE   PO4 3497  15.183   6.427   6.463 -0.0436  0.0649 -0.0716
  337POPE   GL1 3498  15.145   6.200   6.127  0.1539  0.0203  0.1364
  337POPE   GL2 3499  15.281   6.332   5.904  0.1878  0.1510  0.2728
  337POPE   C1A 3500  14.903   6.081   5.758  0.2167 -0.1602 -0.2616
  337POPE   D2A 3501  14.597   5.865   5.692  0.1099  0.0540  0.2006
  337POPE   C3A 3502  14.495   5.719   5.302 -0.5151 -0.3721 -0.0067
  337POPE   C4A 3503  14.629   5.746   4.884  0.1864  0.1408  0.2090
  337POPE   C1B 3504  15.227   6.255   5.463  0.1204  0.2875  0.1331
  337POPE   C2B 3505  15.050   6.229   5.048 -0.0784 -0.1496 -0.1905
  337POPE   C3B 3506  14.852   6.154   4.633  0.0883  0.0298  0.0818
  337POPE   C4B 3507  14.768   6.575   4.391  0.1142 -0.1368 -0.0514
  338POPS   CNO 3508   2.048   4.266   6.536  0.0896 -0.1502 -0.1433
  338POPS   PO4 3509   1.545   4.335   6.377  0.3639 -0.1270 -0.3720
  338POPS   GL1 3510   1.718   4.472   6.032  0.0477 -0.2361  0.1236
  338POPS   GL2 3511   2.027   4.192   5.980 -0.2204 -0.3140 -0.2183
  338POPS   C1A 3512   1.782   4.497   5.576 -0.2651  0.0183 -0.1252
  338POPS   D2A 3513   1.820   4.402   5.127 -0.1425 -0.1113  0.1893
  338POPS   C3A 3514   1.510   4.037   4.864  0.1817  0.1246  0.1301
  338POPS   C4A 3515   1.110   4.110   4.676 -0.0742 -0.3394 -0.1473
  338POPS   C1B 3516   2.136   4.090   5.608 -0.1361 -0.1067 -0.1193
  338POPS   C2B 3517   2.112   4.024   5.222 -0.2110  0.3095 -0.0797
  338POPS   C3B 3518   2.082   3.804   4.931 -0.2536  0.2034 -0.0272
  338POPS   C4B 3519   2.240   3.719   4.574 -0.4411  0.1011 -0.0748
  339POPC   NC3 3520   3.854  14.230   7.604 -0.0334  0.0761  0.0963
  339POPC   PO4 3521   3.944  14.273   7.103 -0.0517 -0.1229 -0.3896
  339POPC   GL1 3522   3.746  13.947   6.875  0.0874  0.0274  0.2192
  339POPC   GL2 3523   3.756  14.079   6.531  0.1310  0.1755  0.0364
  339POPC   C1A 3524   3.468  13.719   6.659 -0.2020  0.4836  0.0448
  339POPC   D2A 3525   3.619  13.413   6.380  0.2172 -0.0392 -0.0121
  339POPC   C3A 3526   3.559  13.352   5.942 -0.2847  0.2171 -0.1348
  339POPC   C4A 3527   3.624  13.145   5.549 -0.0132 -0.3724 -0.1654
  339POPC   C1B 3528   3.995  14.167   6.213 -0.3792  0.2792 -0.0866
  339POPC   C2B 3529   3.943  14.168   5.737  0.0340 -0.0348  0.1546
  339POPC   C3B 3530   3.656  14.108   5.474 -0.0484  0.0393 -0.0663
  339POPC   C4B 3531   3.621  13.932   4.944  0.1507 -0.0834  0.0069
  340POPC   NC3 3532   0.183   8.471   6.520  0.1744  0.0386 -0.0217
  340POPC   PO4 3533  -0.046   8.003   6.541  0.3535  0.1530 -0.1227
  340POPC   GL1 3534   0.077   8.118   6.074  0.0093 -0.3369  0.1186
  340POPC   GL2 3535   0.228   7.845   5.826  0.1473  0.0234 -0.0322
  340POPC   C1A 3536  -0.088   8.214   5.764  0.1309 -0.2836  0.1571
  340POPC   D2A 3537  -0.413   8.549   5.713  0.0807  0.0462  0.0426
  340POPC   C3A 3538  -0.369   8.819   5.403 -0.2129  0.3274 -0.3301
  340POPC   C4A 3539  -0.206   8.880   4.965  0.3212  0.0022 -0.0636
  340POPC   C1B 3540   0.208   7.982   5.394  0.2467  0.0947  0.3605
  340POPC   C2B 3541   0.182   7.961   4.968  0.2364 -0.0443 -0.2175
  340POPC   C3B 3542   0.075   8.007   4.556 -0.0059  0.2641 -0.0549
  340POPC   C4B 3543   0.226   7.823   4.173 -0.1293 -0.0875 -0.0434
  341POPS   CNO 3544   7.989  14.370   6.657  0.2812  0.0575 -0.0313
  341POPS   PO4 3545   8.316  14.547   6.581 -0.1760  0.4131  0.3663
  341POPS   GL1 3546   8.418  14.748   6.231 -0.1452 -0.0553  0.3544
  341POPS   GL2 3547   8.244  15.032   6.231  0.0470 -0.0723  0.1019
  341POPS   C1A 3548   8.362  14.721   5.793 -0.0243  0.2898 -0.3721
  341POPS   D2A 3549   8.564  14.504   5.397  0.2842  0.2435 -0.0974
  341POPS   C3A 3550   8.576  14.669   5.006 -0.1249 -0.0541  0.2391
  341POPS   C4A 3551   8.781  14.726   4.642 -0.3320  0.2618  0.3288
  341POPS   C1B 3552   8.468  15.166   5.881  0.1586 -0.0517 -0.1770
  341POPS   C2B 3553   8.540  15.231   5.387  0.2274  0.2180  0.1818
  341POPS   C3B 3554   8.661  15.158   4.968 -0.0462  0.2093 -0.3902
  341POPS   C4B 3555   8.792  15.222   4.502 -0.4768  0.0056 -0.0860
  342CHOL   ROH 3556  11.462   1.196   6.087  0.2817  0.2689  0.1545
  342CHOL    R1 3557  11.370   1.098   5.838  0.3173  0.0568  0.2223
  342CHOL    R2 3558  11.229   1.254   5.659 -0.0060 -0.2074  0.2384
  342CHOL    R3 3559  11.424   1.176   5.487  0.0379  0.0425  0.1754
  342CHOL    R4 3560  11.177   1.166   5.329  0.0183 -0.1649  0.2234
  342CHOL    R5 3561  11.322   1.005   5.355  0.1877 -0.0234  0.1464
  342CHOL    C1 3562  11.330   1.041   4.975  0.0736  0.0944  0.1555
  342CHOL    C2 3563  11.436   0.812   4.801 -0.1875 -0.2060  0.0069
  343POSM   NC3 3564  13.343  11.605   7.001  0.0893  0.2228  0.0579
  343POSM   PO4 3565  13.149  11.471   6.625  0.0572  0.0536 -0.2450
  343POSM   AM1 3566  13.065  11.472   6.170  0.0339  0.1238  0.0297
  343POSM   AM2 3567  12.781  11.727   6.073 -0.0322 -0.2597 -0.0298
  343POSM   T1A 3568  13.398  11.682   5.884 -0.2330 -0.2080  0.1584
  343POSM   C2A 3569  13.322  11.855   5.377  0.1447 -0.1770  0.0224
  343POSM   C3A 3570  13.356  12.025   4.918 -0.0580 -0.1974 -0.1582
  343POSM   C1B 3571  12.951  11.726   5.631 -0.0053 -0.2506  0.2394
  343POSM   D2B 3572  12.901  11.683   5.180  0.0171 -0.0719  0.2381
  343POSM   C3B 3573  12.813  11.973   4.900  0.1686  0.4199  0.2179
  343POSM   C4B 3574  13.019  12.175   4.500  0.2595  0.3574 -0.2728
  344POPC   NC3 3575   8.321  15.163   6.870 -0.1865 -0.3542 -0.0568
  344POPC   PO4 3576   7.955  15.294   6.649 -0.1112  0.1449 -0.1824
  344POPC   GL1 3577   7.797  15.261   6.230  0.1632  0.4100  0.2590
  344POPC   GL2 3578   7.560  15.115   6.072 -0.0950 -0.0831  0.0858
  344POPC   C1A 3579   7.964  15.074   5.814 -0.0418  0.0873 -0.3331
  344POPC   D2A 3580   8.084  15.043   5.366 -0.2182 -0.0423 -0.0266
  344POPC   C3A 3581   8.164  14.987   4.950  0.0044 -0.0903  0.1756
  344POPC   C4A 3582   8.239  14.882   4.517  0.1552 -0.2635  0.0269
  344POPC   C1B 3583   7.269  15.002   5.695  0.2437  0.2224 -0.2371
  344POPC   C2B 3584   7.335  15.145   5.247  0.0231 -0.0807 -0.2728
  344POPC   C3B 3585   7.317  15.302   4.883 -0.3598 -0.1226 -0.3995
  344POPC   C4B 3586   7.375  15.484   4.455 -0.0884  0.0358  0.0065
  345POSM   NC3 3587   1.579  10.816   6.636 -0.3411 -0.1558 -0.0145
  345POSM   PO4 3588   1.686  10.443   6.706 -0.0975 -0.2677 -0.1242
  345POSM   AM1 3589   1.548  10.449   6.231 -0.1262  0.0367  0.0041
  345POSM   AM2 3590   1.353  10.275   6.092 -0.2519  0.0717  0.0884
  345POSM   T1A 3591   1.878  10.443   5.921 -0.2180  0.2735  0.1362
  345POSM   C2A 3592   1.971  10.372   5.419  0.1684 -0.1484  0.0883
  345POSM   C3A 3593   1.862  10.305   5.053  0.2799  0.0555 -0.0649
  345POSM   C1B 3594   1.375  10.519   5.703 -0.0210 -0.2352 -0.2670
  345POSM   D2B 3595   1.452  10.214   5.465  0.4178  0.0525  0.1081
  345POSM   C3B 3596   1.337  10.351   5.012 -0.0669  0.0778  0.1256
  345POSM   C4B 3597   1.412  10.583   4.717  0.0066  0.1437  0.0743
  346CHOL   ROH 3598   4.839   1.912   6.209 -0.2377 -0.1646 -0.0841
  346CHOL    R1 3599   4.970   1.841   5.969 -0.1694 -0.1295 -0.0576
  346CHOL    R2 3600   4.851   1.682   5.776 -0.1510 -0.0227 -0.1552
  346CHOL    R3 3601   4.913   1.889   5.612 -0.0142  0.0101 -0.0648
  346CHOL    R4 3602   4.812   1.681   5.433 -0.3779  0.2338 -0.1338
  346CHOL    R5 3603   5.002   1.786   5.416 -0.2609  0.0241 -0.1909
  346CHOL    C1 3604   4.847   1.875   5.079 -0.3816  0.4141 -0.0365
  346CHOL    C2 3605   4.745   1.625   4.842  0.1134 -0.1342  0.3268
  347POPC   NC3 3606   8.892   0.206   6.529 -0.0517 -0.0372  0.0739
  347POPC   PO4 3607   9.027  -0.190   6.603  0.1956  0.1125 -0.0006
  347POPC   GL1 3608   8.943  -0.200   6.184 -0.2115 -0.2655 -0.0678
  347POPC   GL2 3609   8.946  -0.585   6.179  0.0469  0.2013 -0.1552
  347POPC   C1A 3610   9.032  -0.118   5.901  0.2088  0.1914 -0.2219
  347POPC   D2A 3611   9.118  -0.225   5.487 -0.4184  0.0137  0.0313
  347POPC   C3A 3612   9.198   0.083   5.133  0.2956 -0.0980  0.0932
  347POPC   C4A 3613   9.138   0.309   4.780  0.5155  0.2109 -0.3377
  347POPC   C1B 3614   8.928  -0.639   5.734  0.0461 -0.1796 -0.1105
  347POPC   C2B 3615   8.899  -0.633   5.266 -0.0888 -0.1294 -0.2720
  347POPC   C3B 3616   9.166  -0.380   4.926 -0.3190 -0.0025 -0.1354
  347POPC   C4B 3617   9.593  -0.404   4.583  0.1645 -0.3990  0.1656
  348POPC   NC3 3618  14.595  10.615   6.353 -0.0967  0.2156  0.1473
  348POPC   PO4 3619  14.864  10.898   6.425  0.2420  0.1364  0.0906
  348POPC   GL1 3620  14.773  10.776   5.929  0.0824 -0.0998  0.1052
  348POPC   GL2 3621  14.330  10.693   5.911 -0.4532  0.1034 -0.0396
  348POPC   C1A 3622  14.954  10.689   5.495  0.0765 -0.1884  0.3736
  348POPC   D2A 3623  15.285  10.742   5.211 -0.0487 -0.0720  0.2538
  348POPC   C3A 3624  15.263  10.636   4.786 -0.1503  0.1259 -0.0947
  348POPC   C4A 3625  15.524  10.362   4.451 -0.0193 -0.2460  0.1697
  348POPC   C1B 3626  14.237  10.650   5.499  0.0098  0.2216  0.4248
  348POPC   C2B 3627  14.149  10.469   5.060 -0.0429 -0.1294  0.0744
  348POPC   C3B 3628  14.265  10.361   4.738 -0.0686  0.2397  0.2939
  348POPC   C4B 3629  14.441  10.281   4.315 -0.0757  0.0072  0.2839
  349POSM   NC3 3630  12.897  13.439   7.235 -0.0808 -0.0137 -0.0668
  349POSM   PO4 3631  13.025  13.758   7.004 -0.1110 -0.1064 -0.3179
  349POSM   AM1 3632  12.860  13.828   6.551  0.1014 -0.2245  0.3661
  349POSM   AM2 3633  12.641  14.136   6.548  0.1072  0.0358  0.2181
  349POSM   T1A 3634  12.723  13.789   6.165 -0.1065 -0.2398 -0.0024
  349POSM   C2A 3635  12.608  13.881   5.708  0.0842  0.0969 -0.0449
  349POSM   C3A 3636  12.471  13.627   5.371 -0.0537  0.1260  0.1043
  349POSM   C1B 3637  12.600  14.263   6.112  0.0824  0.2254 -0.0434
  349POSM   D2B 3638  12.355  14.367   5.766  0.0140  0.1536  0.2068
  349POSM   C3B 3639  12.390  14.412   5.403 -0.1000  0.2763 -0.0522
  349POSM   C4B 3640  12.234  14.392   5.007 -0.0760  0.0646 -0.0453
  350POPS   CNO 3641   7.187  14.874   7.306  0.0484  0.0144  0.0675
  350POPS   PO4 3642   7.191  14.830   6.815 -0.0198 -0.2084 -0.2918
  350POPS   GL1 3643   7.132  14.827   6.337  0.0449 -0.1971 -0.2232
  350POPS   GL2 3644   7.298  14.633   6.073  0.1185  0.3057  0.0563
  350POPS   C1A 3645   6.915  15.125   6.075 -0.1980 -0.1751 -0.0616
  350POPS   D2A 3646   6.524  15.385   6.027  0.0740  0.0918 -0.1191
  350POPS   C3A 3647   6.428  15.445   5.676  0.0030 -0.0915  0.3721
  350POPS   C4A 3648   6.413  15.454   5.251  0.2106 -0.2153 -0.0040
  350POPS   C1B 3649   6.960  14.593   5.780  0.1470 -0.3155 -0.3049
  350POPS   C2B 3650   6.572  14.545   5.490  0.0741 -0.2816  0.1201
  350POPS   C3B 3651   6.315  14.486   5.109  0.4365 -0.1131 -0.0504
  350POPS   C4B 3652   5.898  14.604   4.906  0.0516 -0.1813 -0.0805
  351CHOL   ROH 3653   2.725   2.327   6.214 -0.0252  0.0789  0.0130
  351CHOL    R1 3654   2.896   2.257   6.000 -0.2362 -0.2099 -0.0685
  351CHOL    R2 3655   2.802   2.170   5.756 -0.5204  0.2449 -0.1357
  351CHOL    R3 3656   2.955   2.373   5.660  0.0217 -0.0715  0.0195
  351CHOL    R4 3657   2.892   2.211   5.424 -0.6528  0.3995 -0.1532
  351CHOL    R5 3658   3.090   2.271   5.491 -0.4020 -0.2716 -0.2163
  351CHOL    C1 3659   3.088   2.426   5.142 -0.2210  0.1925 -0.0176
  351CHOL    C2 3660   2.981   2.718   4.944 -0.2313  0.0748 -0.0342
  352POPC   NC3 3661  13.034   2.316   6.646  0.2226  0.0094  0.0960
  352POPC   PO4 3662  12.611   2.146   6.560  0.0868 -0.2081  0.1906
  352POPC   GL1 3663  12.501   2.203   6.068  0.1804  0.1423  0.0010
  352POPC   GL2 3664  12.309   2.357   5.939  0.1167 -0.1737  0.1636
  352POPC   C1A 3665  12.417   1.923   5.701  0.1567 -0.1157  0.1979
  352POPC   D2A 3666  12.484   1.989   5.324  0.0490 -0.0656  0.1317
  352POPC   C3A 3667  12.851   1.942   4.980 -0.2240 -0.4496 -0.2204
  352POPC   C4A 3668  12.893   2.024   4.568 -0.1777 -0.0554  0.3295
  352POPC   C1B 3669  12.367   2.447   5.494  0.4027  0.0396  0.1229
  352POPC   C2B 3670  12.514   2.446   5.095 -0.0109 -0.1312  0.2863
  352POPC   C3B 3671  12.499   2.755   4.979 -0.1219 -0.3440 -0.2912
  352POPC   C4B 3672  12.807   2.884   4.833  0.1175 -0.1299 -0.0160
  353POPE   NH3 3673   5.207  14.577   6.629  0.0280 -0.0949  0.2304
  353POPE   PO4 3674   5.278  15.037   6.557 -0.0573  0.2312  0.0283
  353POPE   GL1 3675   5.266  14.914   6.197  0.1186  0.3082 -0.2322
  353POPE   GL2 3676   5.217  14.650   6.154  0.3009 -0.0403 -0.1368
  353POPE   C1A 3677   5.302  14.895   5.696 -0.1789 -0.1262 -0.1420
  353POPE   D2A 3678   5.402  15.194   5.275 -0.1980  0.1306  0.0738
  353POPE   C3A 3679   5.561  15.043   4.899 -0.3478  0.0517 -0.0301
  353POPE   C4A 3680   5.642  14.826   4.523 -0.2081 -0.1172  0.1254
  353POPE   C1B 3681   5.004  14.531   5.664  0.0801 -0.0101 -0.0231
  353POPE   C2B 3682   4.921  14.346   5.239 -0.4668  0.0452  0.0743
  353POPE   C3B 3683   4.611  14.156   5.171  0.0304  0.0177  0.1442
  353POPE   C4B 3684   4.552  13.872   4.886  0.0911  0.0265 -0.2349
  354POPE   NH3 3685  14.331   9.294   6.683  0.1963  0.3326  0.1979
  354POPE   PO4 3686  14.481   8.785   6.691  0.1118  0.0080  0.1392
  354POPE   GL1 3687  14.699   8.706   6.283 -0.1455 -0.3805 -0.0944
  354POPE   GL2 3688  14.921   8.915   6.104  0.2117  0.0766 -0.1058
  354POPE   C1A 3689  14.577   8.493   5.930 -0.0841 -0.0600  0.1530
  354POPE   D2A 3690  14.484   8.580   5.531 -0.1781  0.0195  0.0570
  354POPE   C3A 3691  14.731   8.514   5.223  0.1985 -0.1146 -0.3267
  354POPE   C4A 3692  14.852   8.533   4.839 -0.1726 -0.0074 -0.0632
  354POPE   C1B 3693  14.763   9.013   5.728 -0.0388  0.2033  0.0404
  354POPE   C2B 3694  14.660   9.004   5.371 -0.2323 -0.3292  0.1384
  354POPE   C3B 3695  14.772   9.096   4.988 -0.0654 -0.1126 -0.0073
  354POPE   C4B 3696  14.932   9.042   4.586  0.2615  0.4192  0.3808
  355POPE   NH3 3697  11.230  13.832   6.763 -0.1363 -0.0272  0.0461
  355POPE   PO4 3698  11.262  13.399   6.590  0.0373 -0.4391  0.0608
  355POPE   GL1 3699  11.318  13.586   6.179  0.1364  0.1467 -0.0735
  355POPE   GL2 3700  11.448  13.342   6.057 -0.1425  0.1366 -0.2612
  355POPE   C1A 3701  11.124  13.915   6.025  0.2326  0.1430 -0.0079
  355POPE   D2A 3702  11.059  14.149   5.672 -0.1554 -0.2312  0.0325
  355POPE   C3A 3703  11.145  14.032   5.189  0.0186  0.0145 -0.3118
  355POPE   C4A 3704  11.287  14.082   4.792  0.2081  0.1723 -0.0606
  355POPE   C1B 3705  11.576  13.599   5.735 -0.2150 -0.2659 -0.0273
  355POPE   C2B 3706  11.467  13.753   5.435  0.1190  0.0328 -0.0596
  355POPE   C3B 3707  11.596  13.658   4.993 -0.0855 -0.1136  0.2868
  355POPE   C4B 3708  11.402  13.634   4.536 -0.1067  0.2332 -0.0085
  356POSM   NC3 3709   9.270   0.739   7.451  0.0956 -0.0470  0.0968
  356POSM   PO4 3710   9.277   0.608   6.960  0.1710  0.0415 -0.1645
  356POSM   AM1 3711   9.241   0.786   6.621  0.0363  0.1774  0.2189
  356POSM   AM2 3712   9.320   0.532   6.426 -0.0758  0.0257  0.0032
  356POSM   T1A 3713   9.156   1.030   6.241 -0.0227 -0.1007  0.0730
  356POSM   C2A 3714   9.297   1.389   5.955 -0.1400 -0.1209 -0.0524
  356POSM   C3A 3715   9.131   1.622   5.547  0.0069  0.2785  0.3102
  356POSM   C1B 3716   9.422   0.344   5.984 -0.2916 -0.4882  0.0801
  356POSM   D2B 3717   9.401   0.324   5.550  0.0977  0.2928 -0.0485
  356POSM   C3B 3718   9.467   0.687   5.315 -0.0624 -0.0624  0.1710
  356POSM   C4B 3719   9.670   1.031   5.173  0.2863  0.3028 -0.1778
  357CHOL   ROH 3720  15.370   9.472   6.015 -0.0093 -0.0992  0.1747
  357CHOL    R1 3721  15.284   9.352   5.773  0.1682 -0.0538  0.0893
  357CHOL    R2 3722  15.088   9.463   5.614 -0.0002 -0.2325  0.1836
  357CHOL    R3 3723  15.279   9.442   5.421  0.0258  0.1949  0.1493
  357CHOL    R4 3724  15.029   9.490   5.274 -0.1686 -0.4959  0.1885
  357CHOL    R5 3725  15.169   9.325   5.242  0.2656 -0.1624  0.2113
  357CHOL    C1 3726  15.173   9.485   4.895 -0.2423 -0.2481  0.1591
  357CHOL    C2 3727  14.779   9.545   4.682  0.0782  0.1773 -0.1233
  358POSM   NC3 3728   9.101  14.762   6.677 -0.0285  0.1002  0.4471
  358POSM   PO4 3729   9.490  14.622   6.829  0.1764  0.1423 -0.1467
  358POSM   AM1 3730   9.554  14.590   6.383 -0.0459  0.0926 -0.1088
  358POSM   AM2 3731   9.426  14.922   6.293  0.5089 -0.0386  0.0698
  358POSM   T1A 3732   9.706  14.398   5.896  0.1391 -0.3765  0.1616
  358POSM   C2A 3733   9.723  14.401   5.464 -0.0638 -0.0082  0.3365
  358POSM   C3A 3734   9.715  14.064   5.224 -0.0821 -0.1312  0.0721
  358POSM   C1B 3735   9.403  14.965   5.877  0.0378  0.0242 -0.2705
  358POSM   D2B 3736   9.441  14.860   5.464  0.0633 -0.2000 -0.2760
  358POSM   C3B 3737   9.645  14.728   4.988 -0.0164 -0.1488 -0.0212
  358POSM   C4B 3738   9.920  14.509   4.760  0.2523 -0.0570 -0.1173
  359CHOL   ROH 3739   0.027   6.733   6.113  0.1900  0.3010 -0.1695
  359CHOL    R1 3740   0.118   6.784   5.850  0.2439  0.0538 -0.2016
  359CHOL    R2 3741   0.235   6.589   5.692 -0.0823 -0.1974 -0.1394
  359CHOL    R3 3742   0.042   6.663   5.515  0.0118  0.0419 -0.1462
  359CHOL    R4 3743   0.223   6.492   5.360 -0.2092 -0.2174 -0.1298
  359CHOL    R5 3744   0.159   6.694   5.308  0.0565 -0.1332 -0.1508
  359CHOL    C1 3745   0.035   6.504   5.001 -0.1946 -0.0043 -0.1306
  359CHOL    C2 3746   0.260   6.492   4.640  0.0403  0.0200 -0.0173
  360POPS   CNO 3747   1.566   2.794   6.591 -0.1622 -0.1620  0.0379
  360POPS   PO4 3748   1.930   2.666   6.626  0.0754  0.0427 -0.0384
  360POPS   GL1 3749   1.995   2.738   6.246 -0.0254  0.1108 -0.1040
  360POPS   GL2 3750   2.329   2.631   6.187 -0.3652 -0.0591 -0.0839
  360POPS   C1A 3751   1.940   2.952   5.937  0.0025 -0.0284 -0.1368
  360POPS   D2A 3752   1.999   3.442   6.007 -0.0670 -0.0990 -0.1710
  360POPS   C3A 3753   1.998   3.612   5.658 -0.0144  0.0539 -0.1643
  360POPS   C4A 3754   1.817   3.623   5.315 -0.0881  0.1524 -0.0479
  360POPS   C1B 3755   2.423   2.521   5.826 -0.0427  0.0042  0.0626
  360POPS   C2B 3756   2.373   2.235   5.394 -0.1142  0.0557 -0.0292
  360POPS   C3B 3757   2.472   2.150   4.985 -0.0463  0.3479 -0.0356
  360POPS   C4B 3758   2.522   1.820   4.676 -0.0530  0.0383  0.0032
  361POSM   NC3 3759  14.473   7.319   6.890  0.0712  0.2369  0.1319
  361POSM   PO4 3760  14.813   7.549   6.624 -0.0374 -0.3343  0.2826
  361POSM   AM1 3761  14.857   7.579   6.213 -0.0817 -0.0698  0.3098
  361POSM   AM2 3762  15.223   7.692   6.040  0.3686 -0.2215  0.1109
  361POSM   T1A 3763  14.743   7.668   5.780  0.0344 -0.2222 -0.0631
  361POSM   C2A 3764  14.378   7.478   5.461  0.2418  0.1993 -0.2079
  361POSM   C3A 3765  14.316   7.295   4.991  0.1278  0.0593  0.1426
  361POSM   C1B 3766  15.231   7.766   5.623 -0.0305  0.0298  0.1236
  361POSM   D2B 3767  15.344   7.558   5.228  0.1484 -0.3895 -0.0449
  361POSM   C3B 3768  15.101   7.583   4.847  0.1945 -0.1926  0.1120
  361POSM   C4B 3769  14.718   7.518   4.800  0.0124 -0.1696 -0.1833
  362POPE   NH3 3770   4.004  14.811   6.761  0.2565 -0.1731 -0.1569
  362POPE   PO4 3771   4.251  14.891   6.556  0.1275  0.4365 -0.0488
  362POPE   GL1 3772   4.416  14.620   6.230  0.0505  0.1546  0.0328
  362POPE   GL2 3773   4.646  14.525   6.076 -0.0358  0.2195  0.0505
  362POPE   C1A 3774   4.134  14.613   5.922 -0.1108 -0.1446 -0.0876
  362POPE   D2A 3775   3.723  14.612   5.681 -0.0522 -0.3381 -0.2514
  362POPE   C3A 3776   3.500  14.332   5.916  0.1781 -0.2892  0.1168
  362POPE   C4A 3777   3.564  13.974   6.084  0.0456 -0.1679 -0.3031
  362POPE   C1B 3778   4.487  14.400   5.715 -0.1120 -0.0759  0.1550
  362POPE   C2B 3779   4.168  14.416   5.337  0.2377 -0.0399  0.0368
  362POPE   C3B 3780   3.697  14.453   5.097 -0.2555 -0.0186  0.0760
  362POPE   C4B 3781   3.370  14.413   4.720 -0.1453  0.1444 -0.0973
  363CHOL   ROH 3782  13.774  12.424   6.034  0.0227 -0.2804 -0.1076
  363CHOL    R1 3783  13.812  12.350   5.763 -0.1628 -0.2896 -0.1359
  363CHOL    R2 3784  13.604  12.268   5.601 -0.3381  0.0045 -0.0911
  363CHOL    R3 3785  13.695  12.466   5.439 -0.1254 -0.0777 -0.0709
  363CHOL    R4 3786  13.482  12.336   5.285 -0.1004  0.0469 -0.1728
  363CHOL    R5 3787  13.687  12.372   5.219 -0.0526 -0.0908 -0.0586
  363CHOL    C1 3788  13.497  12.563   4.949  0.2378 -0.0056 -0.2013
  363CHOL    C2 3789  13.352  12.504   4.593  0.0886  0.0392 -0.1089
  364POPS   CNO 3790   1.314  10.093   6.869 -0.0049 -0.1418 -0.1085
  364POPS   PO4 3791   1.030  10.007   6.490  0.0616  0.2848  0.0994
  364POPS   GL1 3792   1.031   9.861   6.103  0.1248 -0.3512  0.0349
  364POPS   GL2 3793   0.677   9.778   5.937  0.2203  0.2565 -0.0775
  364POPS   C1A 3794   1.176   9.778   5.689 -0.2402 -0.0263  0.0464
  364POPS   D2A 3795   1.153   9.776   5.238 -0.0269 -0.2799  0.0861
  364POPS   C3A 3796   1.050   9.880   4.857 -0.3890  0.1707 -0.1859
  364POPS   C4A 3797   0.964   9.806   4.510 -0.2077  0.0361  0.1866
  364POPS   C1B 3798   0.603   9.804   5.539  0.1248 -0.0301  0.1155
  364POPS   C2B 3799   0.582   9.794   5.238 -0.1668  0.2187  0.2493
  364POPS   C3B 3800   0.503   9.874   4.871  0.0968  0.0075 -0.3752
  364POPS   C4B 3801   0.493   9.990   4.444  0.0828 -0.0178  0.1491
  365POPE   NH3 3802   4.102   2.169   6.646  0.1108  0.0771 -0.5094
  365POPE   PO4 3803   4.332   1.823   6.872 -0.1766 -0.0877  0.2846
  365POPE   GL1 3804   4.345   1.775   6.400 -0.1630  0.0324 -0.4424
  365POPE   GL2 3805   4.200   1.390   6.309 -0.1469 -0.1135  0.2994
  365POPE   C1A 3806   4.455   1.749   6.015 -0.1903  0.1497  0.4780
  365POPE   D2A 3807   4.394   1.856   5.634 -0.0454 -0.1894  0.1652
  365POPE   C3A 3808   4.051   2.115   5.483  0.0686 -0.2027 -0.1543
  365POPE   C4A 3809   4.114   2.430   5.081  0.3661 -0.0588  0.1186
  365POPE   C1B 3810   4.140   1.303   5.953 -0.2157 -0.3538 -0.0144
  365POPE   C2B 3811   4.062   1.543   5.531  0.1370 -0.0018 -0.0567
  365POPE   C3B 3812   3.848   1.798   5.210  0.0575 -0.3004 -0.1914
  365POPE   C4B 3813   3.781   2.029   4.898  0.3265  0.0344  0.0036
  366POPS   CNO 3814   6.547   0.602   6.676 -0.0574 -0.1697 -0.0461
  366POPS   PO4 3815   6.612   0.194   6.555 -0.0661  0.4057  0.0906
  366POPS   GL1 3816   6.204   0.292   6.384  0.0070 -0.1910  0.1822
  366POPS   GL2 3817   6.173   0.633   6.342 -0.3854 -0.0223 -0.3324
  366POPS   C1A 3818   5.935   0.242   5.974 -0.2206 -0.0574  0.0608
  366POPS   D2A 3819   6.017   0.276   5.570  0.3242  0.1140 -0.1060
  366POPS   C3A 3820   6.070   0.358   5.162  0.0588 -0.0728  0.2459
  366POPS   C4A 3821   6.350   0.245   4.843 -0.2274 -0.0698  0.0993
  366POPS   C1B 3822   6.073   0.693   5.900 -0.0007  0.1882 -0.2156
  366POPS   C2B 3823   5.972   0.738   5.456 -0.0500 -0.0936  0.0360
  366POPS   C3B 3824   6.166   0.830   5.042  0.0451 -0.2894  0.0152
  366POPS   C4B 3825   6.020   1.094   4.741 -0.0880 -0.1760 -0.3969
  367POPE   NH3 3826  15.159  10.013   6.185 -0.1857  0.0051 -0.2174
  367POPE   PO4 3827  14.979   9.663   6.361 -0.0416  0.0749  0.0832
  367POPE   GL1 3828  14.782   9.448   6.129  0.0818  0.0641  0.3785
  367POPE   GL2 3829  14.461   9.327   6.185  0.1596 -0.0683  0.1555
  367POPE   C1A 3830  14.596   9.458   5.666  0.2275  0.2762 -0.1354
  367POPE   D2A 3831  14.529   9.489   5.224  0.2204  0.1209 -0.2655
  367POPE   C3A 3832  14.285   9.130   5.065 -0.0334 -0.0109  0.1883
  367POPE   C4A 3833  14.391   8.930   4.709 -0.0536  0.3179 -0.0809
  367POPE   C1B 3834  14.313   9.111   5.845  0.1844  0.0394 -0.0142
  367POPE   C2B 3835  14.090   8.901   5.507  0.2410  0.0821  0.0054
  367POPE   C3B 3836  14.154   8.625   5.154 -0.2450 -0.3476  0.2862
  367POPE   C4B 3837  14.190   8.423   4.722 -0.0878 -0.0094 -0.0855
  368POPC   NC3 3838  12.847   3.629   6.736 -0.2779  0.0099 -0.0281
  368POPC   PO4 3839  13.275   3.593   6.611 -0.2417 -0.1687  0.0309
  368POPC   GL1 3840  13.424   3.473   6.231  0.0200 -0.0403 -0.1411
  368POPC   GL2 3841  13.716   3.259   6.037 -0.0943  0.0655  0.0576
  368POPC   C1A 3842  13.522   3.716   5.918 -0.0207 -0.1096  0.3551
  368POPC   D2A 3843  13.651   3.716   5.539  0.1030 -0.1037 -0.0404
  368POPC   C3A 3844  13.481   3.754   5.193 -0.1878  0.0843 -0.0755
  368POPC   C4A 3845  13.287   3.734   4.866  0.3199  0.1432  0.1264
  368POPC   C1B 3846  13.819   3.191   5.587 -0.1867  0.2848 -0.0785
  368POPC   C2B 3847  13.924   3.469   5.181  0.0784  0.0059 -0.2159
  368POPC   C3B 3848  13.928   3.850   5.016  0.0209  0.2890 -0.1111
  368POPC   C4B 3849  14.141   4.285   4.930  0.0047  0.2403  0.1269
  369CHOL   ROH 3850   0.851   4.735   5.839 -0.0756 -0.0841  0.0094
  369CHOL    R1 3851   0.811   4.821   5.573  0.0273 -0.0957 -0.0101
  369CHOL    R2 3852   0.923   4.691   5.356 -0.1022 -0.2623  0.0227
  369CHOL    R3 3853   0.666   4.682   5.269 -0.1109 -0.0037  0.0127
  369CHOL    R4 3854   0.825   4.593   5.039 -0.1867 -0.1776  0.0220
  369CHOL    R5 3855   0.678   4.754   5.041 -0.0259 -0.0241  0.0082
  369CHOL    C1 3856   0.527   4.528   4.773 -0.2441  0.1146  0.0121
  369CHOL    C2 3857   0.425   4.686   4.470  0.1056 -0.2466  0.3675
  370CHOL   ROH 3858  10.145  14.358   6.310 -0.1180  0.1165  0.0924
  370CHOL    R1 3859  10.203  14.464   6.054 -0.0296 -0.0414  0.0466
  370CHOL    R2 3860  10.371  14.336   5.874 -0.0617 -0.2122  0.1371
  370CHOL    R3 3861  10.157  14.360   5.709 -0.0261 -0.1971  0.0923
  370CHOL    R4 3862  10.386  14.331   5.529  0.0201 -0.0951  0.1378
  370CHOL    R5 3863  10.237  14.489   5.525 -0.0074 -0.1215  0.1542
  370CHOL    C1 3864  10.194  14.350   5.173  0.1012 -0.0127  0.0962
  370CHOL    C2 3865  10.302  14.192   4.908  0.1237  0.0070  0.0910
  371POPE   NH3 3866  12.359   2.599   6.399 -0.0925 -0.0371  0.1315
  371POPE   PO4 3867  12.727   2.763   6.350  0.1119 -0.0393 -0.3551
  371POPE   GL1 3868  12.898   2.527   5.977 -0.2122 -0.0802  0.2681
  371POPE   GL2 3869  13.021   2.180   6.142  0.0865 -0.0364  0.2881
  371POPE   C1A 3870  13.231   2.629   5.669 -0.1990  0.0638  0.1866
  371POPE   D2A 3871  13.456   2.345   5.452  0.0076  0.2504  0.1794
  371POPE   C3A 3872  13.533   2.383   5.049 -0.2791 -0.0007 -0.0228
  371POPE   C4A 3873  13.675   2.502   4.629  0.1234  0.4301  0.0644
  371POPE   C1B 3874  12.838   2.147   5.641  0.3750 -0.0006 -0.0564
  371POPE   C2B 3875  12.983   2.343   5.302  0.1948  0.1406  0.0036
  371POPE   C3B 3876  12.983   2.398   4.960  0.2561  0.0061  0.1914
  371POPE   C4B 3877  13.213   2.396   4.560  0.0660  0.3609 -0.0911
  372POPS   CNO 3878  13.866   5.009   6.536 -0.1029 -0.3212  0.3032
  372POPS   PO4 3879  14.307   5.159   6.585  0.1316 -0.2049  0.0310
  372POPS   GL1 3880  14.478   5.014   6.270 -0.0154 -0.1591 -0.0924
  372POPS   GL2 3881  14.155   4.924   6.113  0.0129 -0.0732 -0.0027
  372POPS   C1A 3882  14.586   4.904   5.821  0.1061 -0.0620  0.0102
  372POPS   D2A 3883  14.695   4.722   5.426 -0.2859  0.0977  0.1512
  372POPS   C3A 3884  14.379   4.701   5.123 -0.0224  0.1237 -0.1614
  372POPS   C4A 3885  14.113   4.808   4.797 -0.0766  0.3123  0.1161
  372POPS   C1B 3886  14.279   4.524   5.946 -0.1907  0.0697  0.4400
  372POPS   C2B 3887  14.414   4.304   5.543  0.0938 -0.1131  0.3091
  372POPS   C3B 3888  14.713   4.254   5.251  0.1110  0.0537  0.1431
  372POPS   C4B 3889  14.859   4.484   4.942 -0.0313 -0.0279 -0.0512
  373POSM   NC3 3890   1.349   4.133   7.216 -0.1060  0.2482  0.0338
  373POSM   PO4 3891   1.217   4.295   6.802  0.0212 -0.2663 -0.0238
  373POSM   AM1 3892   0.942   4.204   6.400 -0.3662 -0.2989 -0.0879
  373POSM   AM2 3893   1.155   4.078   6.130 -0.0690  0.0624  0.1175
  373POSM   T1A 3894   0.742   4.290   5.980  0.0324  0.1816  0.0549
  373POSM   C2A 3895   0.631   4.293   5.648  0.1615 -0.0854 -0.2840
  373POSM   C3A 3896   0.469   4.196   5.169  0.0940  0.0107  0.1064
  373POSM   C1B 3897   1.599   3.961   5.838  0.1287  0.1218  0.0916
  373POSM   D2B 3898   1.563   4.118   5.396 -0.1650  0.1278 -0.3803
  373POSM   C3B 3899   1.305   4.387   5.171 -0.2789 -0.4278 -0.2205
  373POSM   C4B 3900   1.305   4.612   4.758 -0.3515 -0.3548  0.0134
  374POPS   CNO 3901   1.598  12.130   6.518 -0.1256 -0.2360 -0.2229
  374POPS   PO4 3902   1.342  12.518   6.708  0.3869 -0.3562 -0.0652
  374POPS   GL1 3903   1.400  12.533   6.247  0.0149  0.1705 -0.3935
  374POPS   GL2 3904   1.160  12.530   6.209  0.1396  0.2069  0.1758
  374POPS   C1A 3905   1.409  12.721   5.797  0.0637 -0.3281 -0.2760
  374POPS   D2A 3906   1.419  12.899   5.426  0.0909  0.0231  0.2018
  374POPS   C3A 3907   1.393  12.686   5.105 -0.1214 -0.2093  0.0641
  374POPS   C4A 3908   1.248  12.365   4.948 -0.0869 -0.1960 -0.0316
  374POPS   C1B 3909   1.046  12.282   5.892  0.0321 -0.0688 -0.0926
  374POPS   C2B 3910   1.276  12.304   5.483  0.0688 -0.0947  0.2027
  374POPS   C3B 3911   1.532  12.054   5.286 -0.1260 -0.1550  0.0215
  374POPS   C4B 3912   1.903  11.882   5.190 -0.2308  0.2067  0.0800
  375POPE   NH3 3913   0.644   5.452   6.429 -0.0621 -0.0373 -0.1179
  375POPE   PO4 3914   0.693   5.242   6.003 -0.0100 -0.0180  0.1938
  375POPE   GL1 3915   0.727   5.383   5.679  0.1286  0.2089 -0.2182
  375POPE   GL2 3916   0.890   5.641   5.637 -0.1276  0.1482  0.0137
  375POPE   C1A 3917   0.833   5.318   5.244  0.3777  0.0893 -0.0275
  375POPE   D2A 3918   1.053   5.095   5.053  0.0836  0.1817 -0.0540
  375POPE   C3A 3919   0.889   4.877   4.619  0.3158 -0.0213 -0.1390
  375POPE   C4A 3920   0.784   4.940   4.199 -0.0895 -0.5223 -0.0004
  375POPE   C1B 3921   0.868   5.839   5.239  0.0242 -0.2441 -0.0639
  375POPE   C2B 3922   0.730   5.690   4.872  0.1466 -0.0450 -0.1721
  375POPE   C3B 3923   0.753   5.837   4.434 -0.1262 -0.0491 -0.0742
  375POPE   C4B 3924   0.991   5.919   4.119  0.1688  0.2273  0.3148
  376POPE   NH3 3925   9.600   0.196   6.749  0.1688  0.0761  0.0198
  376POPE   PO4 3926   9.970   0.214   6.559 -0.0663  0.1021  0.0084
  376POPE   GL1 3927   9.771   0.414   6.302 -0.2535 -0.0239  0.3551
  376POPE   GL2 3928  10.093   0.340   6.051  0.0770  0.0382 -0.0248
  376POPE   C1A 3929   9.766   0.572   5.723 -0.0754  0.1936  0.1838
  376POPE   D2A 3930   9.929   0.599   5.346  0.0350 -0.0236 -0.1138
  376POPE   C3A 3931   9.671   0.319   4.998  0.0567 -0.0010 -0.3404
  376POPE   C4A 3932   9.610   0.115   4.607  0.2920  0.1618 -0.0846
  376POPE   C1B 3933  10.368   0.361   5.756 -0.2741  0.1070 -0.0073
  376POPE   C2B 3934  10.684   0.355   5.500  0.0311  0.0248  0.0676
  376POPE   C3B 3935  10.905   0.268   5.126 -0.1044  0.0115 -0.0495
  376POPE   C4B 3936  11.102   0.439   4.737 -0.0431  0.1103  0.0059
  377CHOL   ROH 3937  11.914   0.903   6.334  0.1328 -0.2389 -0.0016
  377CHOL    R1 3938  11.892   1.082   6.115 -0.0129 -0.1216  0.1063
  377CHOL    R2 3939  12.057   1.067   5.894  0.0676  0.2100  0.1371
  377CHOL    R3 3940  11.821   1.056   5.759  0.1137  0.0224  0.0700
  377CHOL    R4 3941  12.016   1.145   5.559  0.1226  0.0434  0.0909
  377CHOL    R5 3942  11.828   1.243   5.610  0.0538 -0.0380 -0.0085
  377CHOL    C1 3943  11.771   1.179   5.238  0.1979 -0.2297  0.0010
  377CHOL    C2 3944  11.685   1.320   4.852 -0.1910  0.1175  0.2571
  378POPE   NH3 3945   7.304   0.937   7.252 -0.2378 -0.1978  0.1851
  378POPE   PO4 3946   7.406   0.623   6.708 -0.0940  0.1140 -0.3178
  378POPE   GL1 3947   7.513   0.390   6.407  0.1982  0.2764 -0.2565
  378POPE   GL2 3948   7.488   0.172   6.216  0.1049  0.3097 -0.3252
  378POPE   C1A 3949   7.711   0.459   5.913 -0.1956 -0.1307 -0.0815
  378POPE   D2A 3950   7.928   0.557   5.477  0.0659  0.2649  0.0364
  378POPE   C3A 3951   7.788   0.501   5.067  0.0208  0.1453 -0.2728
  378POPE   C4A 3952   7.405   0.360   4.911 -0.1111  0.3255  0.2325
  378POPE   C1B 3953   7.475   0.055   5.743 -0.1449  0.0743 -0.1467
  378POPE   C2B 3954   7.598   0.143   5.373 -0.3536  0.2063 -0.0897
  378POPE   C3B 3955   7.814  -0.037   5.117  0.2088 -0.1502 -0.0401
  378POPE   C4B 3956   7.797  -0.169   4.694  0.2691 -0.0273  0.3275
  379CHOL   ROH 3957   6.975   0.230   6.217 -0.1970 -0.1061  0.0624
  379CHOL    R1 3958   7.084   0.193   5.958 -0.0216  0.1047  0.1049
  379CHOL    R2 3959   6.982   0.010   5.778  0.3132  0.0087  0.0132
  379CHOL    R3 3960   6.968   0.226   5.615  0.0968  0.0296  0.0545
  379CHOL    R4 3961   6.935  -0.004   5.436  0.4368  0.0114 -0.0052
  379CHOL    R5 3962   7.081   0.157   5.415  0.2506  0.2020  0.0739
  379CHOL    C1 3963   6.895   0.192   5.084  0.3056  0.0326  0.0229
  379CHOL    C2 3964   6.880   0.099   4.710  0.0214  0.4093 -0.1948
  380POPS   CNO 3965   3.131  13.197   7.160  0.1351 -0.3158 -0.2119
  380POPS   PO4 3966   2.982  13.195   6.674  0.0240  0.0737  0.2133
  380POPS   GL1 3967   2.914  13.125   6.324 -0.1236 -0.1324  0.0946
  380POPS   GL2 3968   2.692  13.130   6.217  0.0251 -0.1699 -0.2187
  380POPS   C1A 3969   3.031  13.224   5.816 -0.1207  0.0766 -0.0713
  380POPS   D2A 3970   3.122  13.173   5.331  0.3312  0.1687 -0.0237
  380POPS   C3A 3971   2.908  13.335   4.972 -0.1722  0.3177  0.1051
  380POPS   C4A 3972   2.574  13.698   4.907  0.0159 -0.1862 -0.2760
  380POPS   C1B 3973   2.586  13.275   5.806  0.0062 -0.0478  0.4297
  380POPS   C2B 3974   2.651  13.254   5.415 -0.1376 -0.2575  0.1731
  380POPS   C3B 3975   2.350  13.036   4.967 -0.2204 -0.0069  0.0895
  380POPS   C4B 3976   2.141  12.945   4.619  0.6110 -0.0526 -0.4561
  381CHOL   ROH 3977  12.745   1.682   6.336  0.2704  0.1455  0.0433
  381CHOL    R1 3978  12.713   1.697   6.055  0.2420  0.1285  0.0450
  381CHOL    R2 3979  12.926   1.728   5.882  0.2396 -0.0274  0.0124
  381CHOL    R3 3980  12.822   1.505   5.766  0.0847  0.0207  0.0563
  381CHOL    R4 3981  12.928   1.664   5.543  0.0360 -0.0160  0.0076
  381CHOL    R5 3982  12.725   1.585   5.561  0.0119  0.0694  0.1090
  381CHOL    C1 3983  12.832   1.417   5.236 -0.2279  0.0358  0.0461
  381CHOL    C2 3984  13.086   1.440   4.918 -0.1737  0.1059 -0.1738
  382POPC   NC3 3985   0.771  11.477   6.502 -0.0752 -0.1973 -0.2421
  382POPC   PO4 3986   0.617  11.894   6.440  0.3628  0.2646  0.0505
  382POPC   GL1 3987   0.958  11.862   6.215  0.0369  0.1972 -0.1822
  382POPC   GL2 3988   1.270  11.928   6.161  0.0817 -0.0645  0.1124
  382POPC   C1A 3989   1.052  11.497   5.945  0.1809 -0.1454 -0.2559
  382POPC   D2A 3990   1.137  11.053   5.761  0.1000 -0.0485 -0.0010
  382POPC   C3A 3991   1.087  10.836   5.397  0.1164  0.1903 -0.0849
  382POPC   C4A 3992   1.071  10.744   5.021 -0.0540  0.0044 -0.3583
  382POPC   C1B 3993   1.361  11.883   5.705  0.2421 -0.0666 -0.2020
  382POPC   C2B 3994   1.207  11.566   5.418 -0.2775  0.4699  0.3312
  382POPC   C3B 3995   1.024  11.308   5.176  0.2164 -0.0227 -0.0545
  382POPC   C4B 3996   0.976  11.524   4.866 -0.3539 -0.2258  0.2237
  383POPS   CNO 3997  12.429  14.846   7.194  0.1301  0.2322  0.3304
  383POPS   PO4 3998  12.340  14.476   6.920 -0.1716  0.1414  0.1664
  383POPS   GL1 3999  12.326  14.528   6.468  0.1326 -0.2274  0.0284
  383POPS   GL2 4000  12.387  14.668   6.305 -0.1552 -0.3215  0.0504
  383POPS   C1A 4001  11.996  14.416   6.098 -0.1969 -0.1386  0.1334
  383POPS   D2A 4002  11.776  14.633   5.724  0.2910 -0.2216 -0.0373
  383POPS   C3A 4003  11.906  14.596   5.310  0.1405 -0.0368 -0.0689
  383POPS   C4A 4004  11.937  14.756   4.858 -0.0279 -0.1219  0.0468
  383POPS   C1B 4005  12.249  14.826   5.956 -0.1601  0.1629  0.0476
  383POPS   C2B 4006  12.293  14.865   5.535  0.0425  0.0840 -0.0966
  383POPS   C3B 4007  12.364  14.849   5.161  0.0347 -0.2618 -0.0234
  383POPS   C4B 4008  12.574  14.716   4.671 -0.0218 -0.2693 -0.1441
  384CHOL   ROH 4009   6.620   0.487   6.155 -0.1457 -0.3740 -0.0311
  384CHOL    R1 4010   6.639   0.401   5.886 -0.0132 -0.2424 -0.0649
  384CHOL    R2 4011   6.450   0.467   5.695  0.0155 -0.2505 -0.0981
  384CHOL    R3 4012   6.666   0.560   5.559  0.0145 -0.0784  0.0156
  384CHOL    R4 4013   6.459   0.524   5.355  0.1224 -0.1556 -0.0796
  384CHOL    R5 4014   6.661   0.442   5.351  0.1765 -0.0280 -0.0173
  384CHOL    C1 4015   6.668   0.645   5.029  0.1838  0.0611  0.0380
  384CHOL    C2 4016   6.829   0.591   4.686  0.1789  0.3396 -0.1459
  385POPS   CNO 4017   3.482   1.948   6.907  0.0506  0.2070 -0.1649
  385POPS   PO4 4018   3.248   1.645   6.645 -0.0651  0.3713 -0.2249
  385POPS   GL1 4019   3.089   1.724   6.165 -0.0919  0.0026  0.0191
  385POPS   GL2 4020   2.833   1.621   6.136 -0.0227  0.2213  0.0566
  385POPS   C1A 4021   3.057   1.759   5.655  0.3072  0.0883 -0.2236
  385POPS   D2A 4022   3.189   1.508   5.344 -0.1471  0.1483 -0.0339
  385POPS   C3A 4023   2.959   1.370   5.010  0.2155  0.2738  0.1448
  385POPS   C4A 4024   2.963   1.153   4.686 -0.0424 -0.1596  0.2179
  385POPS   C1B 4025   2.494   1.733   5.757 -0.0126 -0.0392 -0.0310
  385POPS   C2B 4026   2.660   1.682   5.288  0.0661 -0.1355 -0.1423
  385POPS   C3B 4027   2.438   1.434   4.963 -0.1009  0.1958  0.1280
  385POPS   C4B 4028   2.142   1.356   4.665  0.3348  0.0477  0.1026
  386POSM   NC3 4029  14.638   5.280   7.075 -0.1556 -0.4737 -0.1488
  386POSM   PO4 4030  14.574   4.797   7.172 -0.1257 -0.2284 -0.1115
  386POSM   AM1 4031  14.642   4.685   6.691  0.2546 -0.0223 -0.0894
  386POSM   AM2 4032  14.837   4.930   6.660  0.5195  0.0647 -0.1981
  386POSM   T1A 4033  14.756   4.564   6.256 -0.2426 -0.0096  0.0559
  386POSM   C2A 4034  14.844   4.394   5.793  0.4176 -0.2476  0.2314
  386POSM   C3A 4035  15.149   4.376   5.451 -0.0440  0.0859  0.1233
  386POSM   C1B 4036  14.993   5.012   6.216 -0.0616 -0.0616  0.2867
  386POSM   D2B 4037  15.417   4.998   6.019  0.2482  0.0489  0.2276
  386POSM   C3B 4038  15.419   5.273   5.726 -0.0246  0.0455  0.2836
  386POSM   C4B 4039  15.367   5.303   5.273  0.1106 -0.1555 -0.2961
  387CHOL   ROH 4040   8.060   0.292   6.344 -0.0850  0.1044 -0.0496
  387CHOL    R1 4041   8.165   0.170   6.111  0.0533  0.1859 -0.0293
  387CHOL    R2 4042   8.005   0.077   5.906  0.1631  0.0296 -0.0393
  387CHOL    R3 4043   8.164   0.237   5.754  0.0369  0.1610 -0.0362
  387CHOL    R4 4044   8.039   0.053   5.563  0.3124 -0.0708 -0.0191
  387CHOL    R5 4045   8.252   0.091   5.586  0.2702  0.1884  0.0512
  387CHOL    C1 4046   8.207   0.189   5.220  0.2809 -0.0060 -0.0044
  387CHOL    C2 4047   8.213   0.082   4.819  0.3051  0.4025 -0.0485
  388POPC   NC3 4048   0.879   7.190   6.453  0.0737  0.0346 -0.1105
  388POPC   PO4 4049   0.461   7.268   6.427 -0.0216 -0.0393  0.0639
  388POPC   GL1 4050   0.146   7.224   6.071 -0.0581  0.1000 -0.0752
  388POPC   GL2 4051  -0.207   7.209   6.075  0.0084  0.2317  0.1195
  388POPC   C1A 4052   0.115   7.251   5.675  0.1723 -0.2239  0.3797
  388POPC   D2A 4053  -0.122   7.073   5.264 -0.1168 -0.2024  0.1551
  388POPC   C3A 4054  -0.459   7.128   4.983 -0.0550  0.2336 -0.1388
  388POPC   C4A 4055  -0.798   6.978   4.867  0.1252 -0.1541  0.0919
  388POPC   C1B 4056  -0.434   7.271   5.616 -0.0513  0.1409  0.4078
  388POPC   C2B 4057  -0.651   7.525   5.261 -0.1398 -0.2284  0.0734
  388POPC   C3B 4058  -0.798   7.874   5.131  0.1622 -0.0421 -0.0527
  388POPC   C4B 4059  -1.086   8.187   5.158  0.1586  0.0175 -0.2225
  389POPE   NH3 4060   2.450  13.941   6.596 -0.0916 -0.0645 -0.0991
  389POPE   PO4 4061   2.435  13.414   6.574 -0.2235  0.0114 -0.1102
  389POPE   GL1 4062   2.472  13.607   6.219 -0.2320 -0.2519  0.1266
  389POPE   GL2 4063   2.212  13.815   6.128 -0.1602  0.0863 -0.0248
  389POPE   C1A 4064   2.675  13.734   5.925 -0.3049 -0.3351  0.1413
  389POPE   D2A 4065   2.687  13.790   5.522 -0.0755  0.0671  0.0798
  389POPE   C3A 4066   2.993  13.847   5.207  0.4241  0.0580 -0.1690
  389POPE   C4A 4067   3.156  13.952   4.793 -0.2587  0.4065  0.0643
  389POPE   C1B 4068   2.339  14.035   5.741  0.2128 -0.1069 -0.1793
  389POPE   C2B 4069   2.285  14.020   5.293  0.0041  0.0889  0.1295
  389POPE   C3B 4070   2.401  14.157   4.895  0.2183  0.4217  0.0897
  389POPE   C4B 4071   2.757  14.061   4.572 -0.0249  0.2158 -0.0604
  390CHOL   ROH 4072   1.216   3.629   5.863  0.0239 -0.1076 -0.0174
  390CHOL    R1 4073   1.290   3.674   5.593  0.0170 -0.0185 -0.0043
  390CHOL    R2 4074   1.316   3.469   5.410 -0.1042  0.0564 -0.0986
  390CHOL    R3 4075   1.142   3.619   5.266 -0.0440  0.2083 -0.0174
  390CHOL    R4 4076   1.294   3.468   5.065 -0.3451 -0.0267 -0.0858
  390CHOL    R5 4077   1.267   3.684   5.072 -0.1021  0.0136 -0.1284
  390CHOL    C1 4078   1.118   3.609   4.729 -0.4289  0.0675 -0.0022
  390CHOL    C2 4079   1.065   3.418   4.379  0.0204 -0.1034  0.2490
  391POPC   NC3 4080  14.324  10.168   6.743 -0.0284 -0.0090 -0.2386
  391POPC   PO4 4081  14.765  10.179   6.512  0.0622  0.1185 -0.3554
  391POPC   GL1 4082  14.813  10.284   5.989  0.1699  0.3697 -0.5066
  391POPC   GL2 4083  14.797   9.898   5.882  0.0826 -0.1939 -0.1271
  391POPC   C1A 4084  14.585  10.290   5.598  0.0256  0.1474 -0.2058
  391POPC   D2A 4085  14.220   9.978   5.507 -0.0154  0.1283 -0.1979
  391POPC   C3A 4086  14.428  10.027   5.084 -0.0008  0.1805  0.0590
  391POPC   C4A 4087  14.418   9.897   4.658 -0.1329  0.0969 -0.0224
  391POPC   C1B 4088  14.880   9.945   5.480  0.0187  0.0114  0.2180
  391POPC   C2B 4089  14.882   9.896   5.067 -0.1412  0.1585  0.3014
  391POPC   C3B 4090  15.019  10.003   4.651 -0.3363 -0.0099  0.1260
  391POPC   C4B 4091  14.935  10.343   4.359 -0.2599  0.1841  0.0363
  392POPC   NC3 4092   5.811   0.248   6.877 -0.2233  0.1348 -0.1036
  392POPC   PO4 4093   5.725   0.494   6.551 -0.1866 -0.1701  0.1990
  392POPC   GL1 4094   5.469   0.468   6.179  0.0252  0.0819 -0.0272
  392POPC   GL2 4095   5.237   0.283   6.232 -0.0432 -0.1555 -0.2125
  392POPC   C1A 4096   5.549   0.469   5.735  0.1515  0.1847 -0.0548
  392POPC   D2A 4097   5.443   0.777   5.334 -0.1490  0.1168  0.0897
  392POPC   C3A 4098   5.632   0.715   4.928 -0.0753 -0.0547  0.2067
  392POPC   C4A 4099   5.786   0.436   4.727 -0.2206 -0.4992 -0.2480
  392POPC   C1B 4100   5.112  -0.091   5.924  0.1326 -0.2024  0.0053
  392POPC   C2B 4101   4.980  -0.219   5.552 -0.2227 -0.1558 -0.1235
  392POPC   C3B 4102   4.693  -0.181   5.241  0.1285  0.1942  0.0861
  392POPC   C4B 4103   4.457  -0.326   4.889  0.3019  0.0206  0.1102
  393CHOL   ROH 4104   0.172   9.907   6.007 -0.2879 -0.4534  0.0506
  393CHOL    R1 4105   0.140   9.815   5.741 -0.3188 -0.2140 -0.0309
  393CHOL    R2 4106  -0.095   9.850   5.599 -0.2072  0.2391 -0.0929
  393CHOL    R3 4107   0.071   9.964   5.417  0.0304  0.1230  0.0417
  393CHOL    R4 4108  -0.135   9.833   5.256 -0.0216  0.3632 -0.1245
  393CHOL    R5 4109   0.080   9.807   5.236 -0.0204  0.1464  0.0034
  393CHOL    C1 4110  -0.001   9.931   4.885  0.3096  0.3266 -0.0166
  393CHOL    C2 4111   0.104   9.707   4.661 -0.0394  0.0089 -0.1111
  394CHOL   ROH 4112   3.895  15.035   5.942  0.0417 -0.0237  0.0010
  394CHOL    R1 4113   3.956  15.080   5.670  0.2104 -0.0601  0.0325
  394CHOL    R2 4114   4.149  14.935   5.534 -0.0042 -0.3689  0.0638
  394CHOL    R3 4115   3.945  14.888   5.361 -0.0344  0.0384 -0.0243
  394CHOL    R4 4116   4.186  14.883   5.195  0.0560 -0.4434  0.0805
  394CHOL    R5 4117   4.008  15.004   5.161  0.2982 -0.0759  0.0010
  394CHOL    C1 4118   4.017  14.808   4.834  0.0627 -0.1044  0.0077
  394CHOL    C2 4119   4.243  14.702   4.432  0.2486  0.1110 -0.0616
  395CHOL   ROH 4120  13.492  12.822   6.178  0.0004 -0.1536 -0.1766
  395CHOL    R1 4121  13.524  12.759   5.903  0.0105 -0.0352 -0.2026
  395CHOL    R2 4122  13.315  12.672   5.744  0.0434 -0.0870 -0.2148
  395CHOL    R3 4123  13.392  12.880   5.587 -0.0805  0.0114 -0.1480
  395CHOL    R4 4124  13.208  12.725   5.420  0.1119 -0.1257 -0.2442
  395CHOL    R5 4125  13.410  12.785   5.368  0.0824  0.0631 -0.1600
  395CHOL    C1 4126  13.218  12.951   5.083  0.0354 -0.0559 -0.1986
  395CHOL    C2 4127  13.279  12.966   4.739  0.1258  0.2082 -0.0501
  396POPE   NH3 4128   0.197   6.306   6.290 -0.2310 -0.2571 -0.1542
  396POPE   PO4 4129   0.630   6.297   6.337  0.2092 -0.1609  0.0005
  396POPE   GL1 4130   0.604   6.339   5.921  0.1074 -0.4164 -0.0585
  396POPE   GL2 4131   0.736   6.525   5.714 -0.0174 -0.2467  0.0016
  396POPE   C1A 4132   0.564   6.107   5.499  0.0494  0.0843  0.2522
  396POPE   D2A 4133   0.493   6.161   5.051 -0.0317 -0.1191  0.1114
  396POPE   C3A 4134   0.190   6.037   4.852  0.0434 -0.0326 -0.0854
  396POPE   C4A 4135  -0.052   5.700   4.491  0.2169 -0.4743 -0.1995
  396POPE   C1B 4136   0.740   6.478   5.319  0.3097 -0.1500 -0.1455
  396POPE   C2B 4137   0.615   6.653   4.999  0.2127 -0.0755  0.0462
  396POPE   C3B 4138   0.309   6.941   4.870  0.0047 -0.0644  0.2810
  396POPE   C4B 4139  -0.043   7.137   4.706 -0.1604 -0.0311 -0.0810
  397POPS   CNO 4140   3.579   2.752   6.618  0.0004 -0.1841  0.1516
  397POPS   PO4 4141   3.633   2.354   6.673  0.0079  0.0138  0.1128
  397POPS   GL1 4142   3.398   2.107   6.423 -0.2066  0.1060 -0.1090
  397POPS   GL2 4143   3.206   2.352   6.369  0.2706  0.1161 -0.1116
  397POPS   C1A 4144   3.342   2.070   5.972  0.0471 -0.2600 -0.4478
  397POPS   D2A 4145   3.525   1.919   5.605  0.0985  0.0826 -0.1981
  397POPS   C3A 4146   3.331   1.951   5.204  0.2772 -0.0757  0.0609
  397POPS   C4A 4147   3.394   1.756   4.845  0.0555 -0.3876  0.0425
  397POPS   C1B 4148   3.276   2.627   6.072 -0.2419  0.0523  0.3469
  397POPS   C2B 4149   3.183   2.838   5.513 -0.2077 -0.0268 -0.0088
  397POPS   C3B 4150   3.408   2.945   5.157 -0.0121  0.0068 -0.1664
  397POPS   C4B 4151   3.599   3.202   4.941 -0.1872 -0.3029 -0.1335
  398POSM   NC3 4152  14.553  11.522   6.653 -0.1132  0.1291  0.3322
  398POSM   PO4 4153  14.933  11.757   6.788  0.0507  0.0475 -0.1288
  398POSM   AM1 4154  14.743  11.853   6.311  0.3108  0.0838  0.3178
  398POSM   AM2 4155  14.961  11.820   6.108  0.2438  0.1783 -0.2137
  398POSM   T1A 4156  14.667  12.119   5.833  0.3122  0.2370 -0.0981
  398POSM   C2A 4157  14.765  12.066   5.363 -0.0894 -0.2257  0.0508
  398POSM   C3A 4158  14.614  12.115   4.957  0.4899 -0.0777 -0.0822
  398POSM   C1B 4159  15.098  11.688   5.720 -0.3401  0.2033  0.2132
  398POSM   D2B 4160  15.195  11.766   5.374 -0.1388  0.1555 -0.2990
  398POSM   C3B 4161  15.060  11.898   4.928  0.2640  0.0130  0.2405
  398POSM   C4B 4162  14.990  12.350   4.747  0.0802 -0.0066 -0.0865
  399POPE   NH3 4163   0.309  10.709   6.302  0.0472 -0.0102 -0.2621
  399POPE   PO4 4164   0.621  10.804   6.615  0.1402  0.3468 -0.0378
  399POPE   GL1 4165   0.776  11.071   6.129 -0.0101  0.2473 -0.1881
  399POPE   GL2 4166   0.701  10.847   5.967  0.1040  0.2577 -0.1030
  399POPE   C1A 4167   0.705  11.249   5.686 -0.0077 -0.2105  0.1620
  399POPE   D2A 4168   0.534  11.349   5.306  0.1606 -0.3404 -0.1633
  399POPE   C3A 4169   0.468  11.741   4.957 -0.0971 -0.0752  0.0143
  399POPE   C4A 4170   0.117  11.946   4.904 -0.1896 -0.0796  0.1242
  399POPE   C1B 4171   0.554  10.751   5.639  0.0889 -0.1120  0.0225
  399POPE   C2B 4172   0.638  10.783   5.204  0.3350 -0.1836 -0.1069
  399POPE   C3B 4173   0.704  11.029   4.926 -0.3847  0.0045 -0.0394
  399POPE   C4B 4174   0.488  11.381   4.618 -0.0214  0.5085  0.1189
  400POPC   NC3 4175  10.493  14.456   6.642 -0.2340 -0.0680  0.3451
  400POPC   PO4 4176  10.792  14.119   6.738 -0.2614  0.0770 -0.0138
  400POPC   GL1 4177  10.709  14.175   6.313 -0.0206  0.1966  0.0383
  400POPC   GL2 4178  10.444  13.974   6.252 -0.0216 -0.1261  0.3246
  400POPC   C1A 4179  10.771  14.499   6.098  0.1017  0.3464  0.3226
  400POPC   D2A 4180  10.803  14.608   5.621 -0.1621 -0.3338 -0.2146
  400POPC   C3A 4181  10.946  14.980   5.716 -0.4464  0.1288 -0.4667
  400POPC   C4A 4182  11.249  15.174   5.827  0.1002 -0.2409  0.0127
  400POPC   C1B 4183  10.617  13.920   5.847  0.0342  0.1324  0.1449
  400POPC   C2B 4184  10.661  13.998   5.365  0.2647  0.0067  0.0107
  400POPC   C3B 4185  10.745  14.390   5.110 -0.0621  0.0769  0.0615
  400POPC   C4B 4186  11.001  14.530   4.867 -0.3052  0.0644  0.3101
  401CHOL   ROH 4187  15.155  12.321   6.091  0.2258 -0.0774 -0.0782
  401CHOL    R1 4188  15.168  12.242   5.819  0.2511 -0.1714 -0.0510
  401CHOL    R2 4189  15.053  12.390   5.616  0.0736 -0.3558 -0.0897
  401CHOL    R3 4190  15.303  12.379   5.510  0.0676 -0.1610 -0.1267
  401CHOL    R4 4191  15.127  12.427   5.281  0.0165 -0.1388 -0.0795
  401CHOL    R5 4192  15.274  12.268   5.301  0.1070 -0.0669 -0.1818
  401CHOL    C1 4193  15.405  12.439   4.986 -0.0224  0.1704 -0.1083
  401CHOL    C2 4194  15.780  12.346   4.744 -0.2175  0.0033 -0.0427
  402POSM   NC3 4195  12.838   0.949   6.708  0.0238 -0.4550 -0.0832
  402POSM   PO4 4196  12.983   1.179   6.396  0.1007 -0.3988 -0.0693
  402POSM   AM1 4197  13.202   1.063   6.060 -0.2494  0.2968  0.1661
  402POSM   AM2 4198  13.510   1.025   6.050 -0.2249  0.1401 -0.1390
  402POSM   T1A 4199  12.977   1.005   5.623  0.0767  0.1822 -0.1809
  402POSM   C2A 4200  12.958   0.940   5.118  0.0966  0.2438 -0.3172
  402POSM   C3A 4201  12.760   1.112   4.704  0.0399  0.0203  0.0090
  402POSM   C1B 4202  13.678   0.979   5.617  0.2261  0.4284  0.1439
  402POSM   D2B 4203  13.785   0.991   5.148 -0.0664 -0.2324  0.0809
  402POSM   C3B 4204  13.874   0.838   4.731  0.0747 -0.0073 -0.3322
  402POSM   C4B 4205  14.209   0.685   4.483 -0.2449  0.0922  0.1734
  403POPE   NH3 4206   5.230   0.635   6.632  0.1910 -0.0796  0.0960
  403POPE   PO4 4207   5.507   0.985   6.608 -0.1813  0.1176  0.0834
  403POPE   GL1 4208   5.411   0.966   6.189 -0.2926 -0.0439  0.0707
  403POPE   GL2 4209   5.630   0.908   6.047  0.0108 -0.3087 -0.1366
  403POPE   C1A 4210   5.177   0.773   5.928 -0.0707 -0.3680  0.0968
  403POPE   D2A 4211   4.835   0.846   5.610 -0.0089 -0.2567  0.2406
  403POPE   C3A 4212   4.877   0.735   5.173 -0.1022 -0.1120  0.1955
  403POPE   C4A 4213   5.162   0.739   4.846  0.0827 -0.4498  0.1008
  403POPE   C1B 4214   5.591   1.070   5.698 -0.0645  0.0983 -0.0840
  403POPE   C2B 4215   5.728   1.237   5.278 -0.0174  0.1521  0.3435
  403POPE   C3B 4216   5.778   1.587   4.992 -0.0564 -0.1045  0.1349
  403POPE   C4B 4217   5.860   1.835   4.882 -0.2964 -0.1640  0.0116
  404POPS   CNO 4218  15.057  12.678   6.378 -0.1523 -0.2447 -0.1344
  404POPS   PO4 4219  14.713  12.357   6.332 -0.2012 -0.0797 -0.1212
  404POPS   GL1 4220  14.284  12.296   6.242  0.2090  0.0122  0.3246
  404POPS   GL2 4221  14.331  12.403   5.967 -0.0911  0.1544 -0.4017
  404POPS   C1A 4222  14.147  11.958   5.916  0.0555  0.1539  0.3088
  404POPS   D2A 4223  13.884  11.894   5.588  0.0029 -0.1942 -0.1849
  404POPS   C3A 4224  13.825  12.002   5.043 -0.0104 -0.1426  0.2587
  404POPS   C4A 4225  13.838  12.306   4.723 -0.0077 -0.0062  0.1969
  404POPS   C1B 4226  14.264  12.257   5.490 -0.1206 -0.0574  0.4598
  404POPS   C2B 4227  14.269  11.916   5.228 -0.0809 -0.1126 -0.1141
  404POPS   C3B 4228  14.279  11.793   4.841  0.0998 -0.0144 -0.1855
  404POPS   C4B 4229  14.202  11.651   4.322 -0.1811 -0.0584  0.1088
  405CHOL   ROH 4230   9.863  15.360   6.176 -0.0242  0.1122  0.0078
  405CHOL    R1 4231   9.733  15.413   5.930  0.1284  0.2030 -0.0543
  405CHOL    R2 4232   9.871  15.486   5.702  0.3058 -0.0466 -0.0308
  405CHOL    R3 4233   9.737  15.275   5.594  0.0683  0.0865 -0.0081
  405CHOL    R4 4234   9.810  15.443   5.364  0.4788 -0.1339 -0.0529
  405CHOL    R5 4235   9.610  15.371   5.415  0.3302  0.1843 -0.1490
  405CHOL    C1 4236   9.649  15.221   5.066  0.3565 -0.0598 -0.0443
  405CHOL    C2 4237   9.943  15.353   4.843 -0.5022 -0.1751 -0.2374
  406CHOL   ROH 4238   0.383  10.332   5.929 -0.4120  0.2107 -0.0245
  406CHOL    R1 4239   0.318  10.244   5.668 -0.4015  0.0807  0.0158
  406CHOL    R2 4240   0.205  10.411   5.479 -0.3088  0.0112 -0.1010
  406CHOL    R3 4241   0.416  10.328   5.328 -0.3137 -0.1553 -0.0192
  406CHOL    R4 4242   0.223  10.434   5.134 -0.1663 -0.0207 -0.0964
  406CHOL    R5 4243   0.316  10.237   5.131 -0.3114 -0.0924 -0.0513
  406CHOL    C1 4244   0.431  10.370   4.792 -0.0880 -0.1955 -0.0170
  406CHOL    C2 4245   0.494  10.736   4.526  0.2705 -0.0274 -0.1922
  407POPS   CNO 4246   0.414   5.875   6.470 -0.0518 -0.0598  0.0854
  407POPS   PO4 4247  -0.065   5.913   6.489  0.3064 -0.3867 -0.1775
  407POPS   GL1 4248  -0.003   5.817   6.021  0.0783  0.1247 -0.1393
  407POPS   GL2 4249   0.204   5.984   5.866  0.1230  0.2944 -0.0854
  407POPS   C1A 4250  -0.134   5.793   5.576 -0.0463 -0.0482 -0.2434
  407POPS   D2A 4251  -0.454   5.826   5.344  0.1342 -0.2825  0.2103
  407POPS   C3A 4252  -0.345   5.756   4.973 -0.0216 -0.0907 -0.2953
  407POPS   C4A 4253  -0.446   5.440   4.681 -0.3209 -0.0121 -0.1320
  407POPS   C1B 4254   0.336   5.662   5.710  0.1105 -0.1773  0.0749
  407POPS   C2B 4255   0.429   5.639   5.276  0.0159 -0.0645  0.2648
  407POPS   C3B 4256   0.143   5.506   4.905  0.0016 -0.2653 -0.0032
  407POPS   C4B 4257   0.026   5.193   4.640 -0.0459  0.1300 -0.0453
  408POPC   NC3 4258   1.444   3.755   6.430  0.1727  0.0045 -0.0182
  408POPC   PO4 4259   1.178   3.459   6.416 -0.1149  0.1059 -0.2232
  408POPC   GL1 4260   1.178   3.149   6.152 -0.0210 -0.2262 -0.0733
  408POPC   GL2 4261   1.408   2.979   6.149 -0.0039  0.1178 -0.1008
  408POPC   C1A 4262   1.214   3.014   5.648 -0.1411 -0.1610 -0.0188
  408POPC   D2A 4263   1.275   2.762   5.360  0.0123 -0.2942  0.0445
  408POPC   C3A 4264   1.200   2.970   5.087  0.0625 -0.2641  0.2589
  408POPC   C4A 4265   1.182   3.084   4.681 -0.1802 -0.3842 -0.3535
  408POPC   C1B 4266   1.616   3.323   5.811 -0.3349 -0.0638  0.0225
  408POPC   C2B 4267   1.680   3.168   5.338  0.2042 -0.1405 -0.1357
  408POPC   C3B 4268   1.626   3.125   4.880 -0.2595  0.0347 -0.1812
  408POPC   C4B 4269   1.676   3.546   4.653 -0.2074 -0.2809 -0.1896
  409POPS   CNO 4270   3.269  14.155   6.839  0.0643  0.0166  0.2658
  409POPS   PO4 4271   2.797  14.203   6.810 -0.0089 -0.1020 -0.1398
  409POPS   GL1 4272   2.931  14.020   6.485  0.1460 -0.2046 -0.1645
  409POPS   GL2 4273   2.908  13.764   6.427 -0.0736  0.0501 -0.1189
  409POPS   C1A 4274   3.017  14.116   6.064 -0.2235  0.0790 -0.0877
  409POPS   D2A 4275   3.028  14.179   5.590 -0.1072  0.0868 -0.2760
  409POPS   C3A 4276   2.713  14.400   5.448  0.2469  0.2292  0.0397
  409POPS   C4A 4277   2.434  14.606   5.318  0.0125  0.1029  0.0160
  409POPS   C1B 4278   3.168  13.608   6.110  0.4506 -0.1657 -0.0933
  409POPS   C2B 4279   3.191  13.728   5.727 -0.1628  0.0118 -0.0437
  409POPS   C3B 4280   3.406  13.634   5.390 -0.3412 -0.1842 -0.0604
  409POPS   C4B 4281   3.409  13.478   5.025  0.0731 -0.0499 -0.0056
  410POPE   NH3 4282  11.377   1.379   6.615  0.1212 -0.1096 -0.0053
  410POPE   PO4 4283  11.433   0.991   6.682  0.1571 -0.1533  0.0064
  410POPE   GL1 4284  11.250   0.762   6.325 -0.0900 -0.1159 -0.1638
  410POPE   GL2 4285  11.135   0.553   6.292  0.1154  0.2188 -0.1000
  410POPE   C1A 4286  10.916   1.066   6.095  0.3387  0.0656  0.0547
  410POPE   D2A 4287  10.816   0.928   5.725  0.0807  0.1343  0.2184
  410POPE   C3A 4288  10.599   1.183   5.344 -0.1628  0.2376 -0.0421
  410POPE   C4A 4289  10.845   1.338   4.944  0.1180  0.2755 -0.1863
  410POPE   C1B 4290  11.036   0.511   5.946  0.0303 -0.3524 -0.1723
  410POPE   C2B 4291  11.049   0.615   5.500  0.3599 -0.1796 -0.0801
  410POPE   C3B 4292  11.292   0.480   5.230 -0.3765 -0.4167 -0.2833
  410POPE   C4B 4293  11.559   0.312   4.922 -0.4192  0.0933  0.1387
  411CHOL   ROH 4294   0.802  10.374   6.183  0.3128 -0.2118 -0.0252
  411CHOL    R1 4295   0.896  10.417   5.920  0.2158 -0.0632 -0.0357
  411CHOL    R2 4296   0.965  10.209   5.750  0.1564  0.0349 -0.1728
  411CHOL    R3 4297   0.787  10.330   5.583  0.0964  0.1229 -0.0491
  411CHOL    R4 4298   0.960  10.173   5.407 -0.0795  0.0474 -0.1735
  411CHOL    R5 4299   0.916  10.385   5.389  0.0013  0.0758 -0.1336
  411CHOL    C1 4300   0.791  10.264   5.050 -0.2732  0.1373 -0.0576
  411CHOL    C2 4301   0.990  10.353   4.656  0.1707 -0.0781  0.4516
  412POPE   NH3 4302  14.414  12.711   6.506 -0.0836  0.2697 -0.0762
  412POPE   PO4 4303  13.949  12.704   6.470  0.3822 -0.1599  0.1484
  412POPE   GL1 4304  14.057  12.836   6.108 -0.1437  0.0251  0.0923
  412POPE   GL2 4305  14.010  13.080   5.982 -0.4200  0.1629  0.0985
  412POPE   C1A 4306  14.137  12.715   5.644 -0.1713 -0.1347  0.0031
  412POPE   D2A 4307  14.185  12.771   5.263 -0.0788  0.0634 -0.0859
  412POPE   C3A 4308  14.207  12.435   5.015 -0.4665  0.1656 -0.5207
  412POPE   C4A 4309  14.403  12.371   4.567 -0.0134  0.3902  0.5047
  412POPE   C1B 4310  13.795  13.082   5.517 -0.5163  0.2702 -0.2981
  412POPE   C2B 4311  13.829  13.026   5.062  0.0926 -0.3295 -0.1363
  412POPE   C3B 4312  13.760  12.932   4.619  0.0548  0.4038 -0.2995
  412POPE   C4B 4313  13.786  12.692   4.159  0.1197 -0.2290  0.1134
  413CHOL   ROH 4314   4.790   0.505   5.993  0.1875  0.1784 -0.0562
  413CHOL    R1 4315   4.904   0.319   5.812  0.1084  0.0783 -0.0054
  413CHOL    R2 4316   4.807   0.282   5.556  0.0457 -0.0035  0.0250
  413CHOL    R3 4317   5.064   0.332   5.486  0.0432 -0.0868 -0.0434
  413CHOL    R4 4318   4.934   0.250   5.237 -0.0550  0.0231 -0.0177
  413CHOL    R5 4319   5.115   0.165   5.322 -0.0659 -0.0640 -0.0951
  413CHOL    C1 4320   5.250   0.280   4.984 -0.1161 -0.0396 -0.1068
  413CHOL    C2 4321   5.207   0.120   4.737 -0.2128 -0.1406 -0.0784
  414POPE   NH3 4322   3.119   1.289   6.933  0.1592 -0.0123 -0.1011
  414POPE   PO4 4323   2.674   1.102   6.773 -0.2271  0.3115 -0.2599
  414POPE   GL1 4324   2.572   0.948   6.341 -0.2186  0.0146 -0.1531
  414POPE   GL2 4325   2.417   0.855   6.044  0.0162 -0.2031 -0.1624
  414POPE   C1A 4326   2.794   1.144   6.027  0.0654  0.0111  0.0380
  414POPE   D2A 4327   2.820   1.307   5.668 -0.3160 -0.1292  0.0031
  414POPE   C3A 4328   2.792   1.039   5.397 -0.0917  0.2547  0.0194
  414POPE   C4A 4329   2.666   0.883   5.019  0.0718 -0.0864 -0.0107
  414POPE   C1B 4330   2.396   0.785   5.696  0.0832 -0.0011  0.1196
  414POPE   C2B 4331   2.337   0.602   5.264 -0.4119  0.2292 -0.1183
  414POPE   C3B 4332   2.501   0.428   4.797 -0.1773  0.4116 -0.1882
  414POPE   C4B 4333   2.453   0.252   4.433 -0.1282  0.3370  0.2794
  415CHOL   ROH 4334  13.153  14.116   6.211 -0.0062 -0.2927  0.1521
  415CHOL    R1 4335  13.060  14.196   5.956  0.0921 -0.0174  0.2008
  415CHOL    R2 4336  13.179  14.399   5.811  0.4180 -0.1498  0.2814
  415CHOL    R3 4337  13.194  14.208   5.618  0.0696 -0.0890  0.1860
  415CHOL    R4 4338  13.212  14.462   5.473  0.3883 -0.0299  0.2998
  415CHOL    R5 4339  13.072  14.300   5.434  0.1296  0.1843  0.2729
  415CHOL    C1 4340  13.245  14.319   5.095  0.0438  0.0970  0.2211
  415CHOL    C2 4341  13.549  14.312   4.838  0.0129 -0.1942 -0.0364
  416POPE   NH3 4342  12.314   1.752   6.764  0.1652  0.3380 -0.1307
  416POPE   PO4 4343  12.552   1.362   6.655 -0.0468 -0.1336 -0.1962
  416POPE   GL1 4344  12.368   1.345   6.230  0.1357 -0.2420 -0.1686
  416POPE   GL2 4345  12.586   1.125   6.057 -0.1485  0.2462  0.1777
  416POPE   C1A 4346  12.226   1.518   5.830 -0.0617 -0.0145 -0.2610
  416POPE   D2A 4347  12.157   1.561   5.351  0.0780  0.1905 -0.1973
  416POPE   C3A 4348  12.360   1.598   5.038  0.0355  0.3737  0.0391
  416POPE   C4A 4349  12.588   1.624   4.680 -0.2919 -0.0525  0.0298
  416POPE   C1B 4350  12.484   1.159   5.555 -0.0017 -0.2703  0.2316
  416POPE   C2B 4351  12.427   1.147   5.151 -0.2317 -0.1368  0.2374
  416POPE   C3B 4352  12.237   1.172   4.725  0.1567 -0.4443 -0.0020
  416POPE   C4B 4353  11.948   1.052   4.493 -0.1891  0.0056 -0.0742
  417POPE   NH3 4354  12.014  14.151   7.136 -0.4606  0.0784 -0.0645
  417POPE   PO4 4355  11.652  14.112   6.873 -0.0080  0.2592 -0.1256
  417POPE   GL1 4356  11.732  14.377   6.516 -0.2078 -0.1298 -0.2878
  417POPE   GL2 4357  11.623  14.125   6.243 -0.0153 -0.2268  0.0204
  417POPE   C1A 4358  11.494  14.572   6.267 -0.0607 -0.3808  0.0193
  417POPE   D2A 4359  11.237  14.620   5.871 -0.2908 -0.2569  0.1469
  417POPE   C3A 4360  11.227  14.548   5.421 -0.1167 -0.2318  0.2121
  417POPE   C4A 4361  11.426  14.637   5.079  0.0677 -0.1410 -0.0786
  417POPE   C1B 4362  11.546  14.149   5.784  0.1979  0.0307  0.1360
  417POPE   C2B 4363  11.599  14.199   5.348  0.0027 -0.0668  0.1819
  417POPE   C3B 4364  11.759  14.192   4.954  0.0100  0.0840 -0.1400
  417POPE   C4B 4365  12.057  14.229   4.610 -0.1964  0.0700  0.1624
  418POPC   NC3 4366  10.191  15.211   6.876 -0.0298  0.0116  0.2444
  418POPC   PO4 4367  10.129  14.813   6.613 -0.0168 -0.0151  0.0618
  418POPC   GL1 4368  10.263  14.923   6.213  0.2404 -0.0673  0.0090
  418POPC   GL2 4369   9.998  14.903   6.150  0.2254 -0.0817  0.2946
  418POPC   C1A 4370  10.449  14.875   5.803  0.1641 -0.2937 -0.2203
  418POPC   D2A 4371  10.460  14.855   5.323 -0.1091  0.0826  0.2121
  418POPC   C3A 4372  10.302  15.283   5.152  0.3872  0.0428  0.0596
  418POPC   C4A 4373  10.321  15.635   5.205  0.1456  0.1210 -0.0168
  418POPC   C1B 4374   9.938  14.851   5.798 -0.0286  0.0376 -0.2029
  418POPC   C2B 4375   9.934  14.827   5.369 -0.0669 -0.0388 -0.1965
  418POPC   C3B 4376  10.139  14.891   4.919  0.2419 -0.2951  0.1793
  418POPC   C4B 4377  10.241  14.810   4.522 -0.0629  0.0610 -0.1591
  419POPE   NH3 4378   4.218   0.489   6.385  0.0730  0.3568  0.1307
  419POPE   PO4 4379   4.450   0.052   6.496 -0.0398 -0.1555 -0.2155
  419POPE   GL1 4380   4.478   0.029   6.080  0.0263  0.1523 -0.0120
  419POPE   GL2 4381   4.401  -0.325   6.170  0.0035 -0.0427  0.0156
  419POPE   C1A 4382   4.389  -0.024   5.649  0.0090  0.0137 -0.2561
  419POPE   D2A 4383   4.173   0.041   5.302  0.1675  0.2386  0.0611
  419POPE   C3A 4384   4.461   0.166   4.922 -0.4179  0.3042 -0.1241
  419POPE   C4A 4385   4.826   0.393   4.802  0.0706 -0.3407  0.0322
  419POPE   C1B 4386   4.629  -0.523   5.762 -0.1151 -0.0067  0.1155
  419POPE   C2B 4387   4.633  -0.680   5.413  0.0385 -0.2899 -0.1340
  419POPE   C3B 4388   4.538  -0.871   5.001 -0.1531  0.0941 -0.2434
  419POPE   C4B 4389   4.190  -1.102   4.837 -0.0205  0.0316  0.0502
  420POPE   NH3 4390   1.060   2.925   6.626 -0.0091  0.0548 -0.0711
  420POPE   PO4 4391   1.135   2.452   6.700 -0.3523  0.2423 -0.2449
  420POPE   GL1 4392   1.131   2.541   6.337 -0.3826 -0.2979  0.2177
  420POPE   GL2 4393   1.303   2.215   6.222  0.0495  0.3422 -0.1042
  420POPE   C1A 4394   1.037   2.555   5.914 -0.1454  0.0213 -0.2178
  420POPE   D2A 4395   1.013   2.302   5.457 -0.2019  0.0913  0.0509
  420POPE   C3A 4396   1.047   1.877   5.421 -0.3891  0.0763  0.0708
  420POPE   C4A 4397   1.110   1.704   5.019 -0.0334 -0.0293 -0.2551
  420POPE   C1B 4398   1.586   2.532   6.089 -0.0505 -0.1447 -0.0002
  420POPE   C2B 4399   1.543   2.634   5.731  0.1506 -0.1692 -0.1290
  420POPE   C3B 4400   1.602   2.359   5.377 -0.1023 -0.2496 -0.1479
  420POPE   C4B 4401   1.948   2.284   5.160 -0.2986  0.0208 -0.0189
  421POPC   NC3 4402  14.432   3.349   6.744 -0.3887  0.0598  0.1425
  421POPC   PO4 4403  14.270   3.700   6.565  0.0806  0.2547 -0.1352
  421POPC   GL1 4404  14.419   3.497   6.248 -0.0987  0.1514 -0.2208
  421POPC   GL2 4405  14.211   3.234   6.184  0.0555 -0.2730  0.0758
  421POPC   C1A 4406  14.767   3.544   5.965  0.0395  0.0825  0.0314
  421POPC   D2A 4407  14.677   3.925   5.732  0.1133  0.1103  0.1733
  421POPC   C3A 4408  14.936   3.917   5.484 -0.0773  0.1404 -0.5372
  421POPC   C4A 4409  15.288   3.590   5.449 -0.1617 -0.1704 -0.1696
  421POPC   C1B 4410  14.164   2.881   5.919  0.1327  0.2580 -0.0405
  421POPC   C2B 4411  14.200   2.782   5.406  0.3667  0.4271  0.1214
  421POPC   C3B 4412  14.255   3.103   5.169 -0.0628  0.0630  0.2134
  421POPC   C4B 4413  14.420   3.280   4.847  0.1865 -0.0702  0.1802
  422CHOL   ROH 4414  13.991   3.654   5.988  0.2348  0.0168  0.1607
  422CHOL    R1 4415  14.194   3.711   5.798  0.1774  0.0006  0.0955
  422CHOL    R2 4416  14.243   3.549   5.580  0.0759  0.0127  0.0698
  422CHOL    R3 4417  14.210   3.780   5.441  0.0683  0.0272  0.0938
  422CHOL    R4 4418  14.378   3.614   5.269 -0.1576 -0.0710 -0.0525
  422CHOL    R5 4419  14.421   3.817   5.335  0.0023 -0.0841 -0.0911
  422CHOL    C1 4420  14.426   3.869   4.957 -0.3006 -0.1061 -0.1013
  422CHOL    C2 4421  14.658   3.791   4.698  0.1429  0.0492  0.0575
  423CHOL   ROH 4422   4.011  15.451   6.193  0.1616  0.1641  0.1095
  423CHOL    R1 4423   3.966  15.535   5.926  0.0228 -0.0929  0.0503
  423CHOL    R2 4424   3.744  15.457   5.781 -0.2245  0.0283  0.3594
  423CHOL    R3 4425   3.711  15.724   5.749  0.1056  0.0431  0.0694
  423CHOL    R4 4426   3.609  15.608   5.501 -0.2096 -0.1327  0.2633
  423CHOL    R5 4427   3.759  15.764   5.518  0.0154 -0.2988 -0.0165
  423CHOL    C1 4428   3.499  15.947   5.308  0.1089 -0.2125 -0.0650
  423CHOL    C2 4429   3.389  15.794   5.097 -0.2563  0.3721  0.2776
  424POPE   NH3 4430  13.184  13.423   6.693  0.0686  0.1024 -0.0557
  424POPE   PO4 4431  13.621  13.410   6.746 -0.0380  0.0003  0.2839
  424POPE   GL1 4432  13.513  13.355   6.287 -0.2433 -0.0171  0.2505
  424POPE   GL2 4433  13.261  13.604   6.206  0.1650  0.0776 -0.0054
  424POPE   C1A 4434  13.537  13.371   5.824 -0.0692 -0.0924 -0.1289
  424POPE   D2A 4435  13.286  13.365   5.421  0.1635 -0.2817  0.0178
  424POPE   C3A 4436  13.475  13.460   5.121  0.0809  0.1059 -0.1031
  424POPE   C4A 4437  13.594  13.426   4.627 -0.0170 -0.1610 -0.3287
  424POPE   C1B 4438  13.139  13.714   5.867  0.0151  0.1118 -0.1714
  424POPE   C2B 4439  13.007  13.762   5.400 -0.0324  0.1408 -0.1675
  424POPE   C3B 4440  12.997  13.721   4.992  0.0683  0.3975 -0.1540
  424POPE   C4B 4441  12.731  13.740   4.755 -0.0501  0.3123 -0.3720
  425POPE   NH3 4442  15.067   4.567   6.938 -0.1490 -0.0101 -0.1036
  425POPE   PO4 4443  15.407   4.248   6.842 -0.1615 -0.3210  0.2752
  425POPE   GL1 4444  15.488   4.243   6.363 -0.2559 -0.1267 -0.4172
  425POPE   GL2 4445  15.795   4.285   6.285 -0.1069  0.0405 -0.0060
  425POPE   C1A 4446  15.287   4.440   6.014 -0.3210 -0.0656  0.3005
  425POPE   D2A 4447  15.135   4.819   5.697 -0.2903 -0.1782 -0.2338
  425POPE   C3A 4448  15.172   4.852   5.282  0.0705  0.0006  0.1921
  425POPE   C4A 4449  15.164   4.902   4.858  0.3329 -0.0042 -0.0951
  425POPE   C1B 4450  15.660   4.090   5.883 -0.0245 -0.0083 -0.3095
  425POPE   C2B 4451  15.513   4.025   5.425  0.0239 -0.1274  0.0336
  425POPE   C3B 4452  15.253   4.024   5.075  0.2746 -0.0302 -0.2508
  425POPE   C4B 4453  15.083   4.124   4.626  0.1057  0.1533  0.1461
  426POPE   NH3 4454   4.778   0.519   6.467  0.0116  0.4036 -0.2258
  426POPE   PO4 4455   4.491   0.909   6.407 -0.0095  0.4395 -0.0486
  426POPE   GL1 4456   4.496   0.961   6.003 -0.0134 -0.0859 -0.1718
  426POPE   GL2 4457   4.668   1.224   6.050  0.0414  0.0702 -0.1450
  426POPE   C1A 4458   4.266   0.910   5.540  0.4422 -0.1393 -0.4080
  426POPE   D2A 4459   4.086   1.105   5.244 -0.0643  0.2850 -0.1385
  426POPE   C3A 4460   4.201   1.458   5.035 -0.0891 -0.1114 -0.1862
  426POPE   C4A 4461   4.358   1.771   5.180  0.3559  0.1715 -0.0164
  426POPE   C1B 4462   4.550   1.294   5.640  0.3950  0.4807  0.0906
  426POPE   C2B 4463   4.606   1.159   5.225 -0.1216 -0.1524 -0.0403
  426POPE   C3B 4464   4.801   1.127   4.821 -0.1551  0.1722  0.1264
  426POPE   C4B 4465   5.076   1.301   4.511 -0.0830 -0.5318 -0.1718
  427POPE   NH3 4466   0.390   4.967   6.282 -0.2080  0.2593  0.2383
  427POPE   PO4 4467   0.666   4.658   6.309  0.1608  0.0509  0.1379
  427POPE   GL1 4468   0.348   4.591   5.915  0.1408  0.0073  0.0571
  427POPE   GL2 4469   0.366   4.908   5.728 -0.0439  0.0760  0.1788
  427POPE   C1A 4470   0.150   4.562   5.491 -0.1180 -0.0411  0.1689
  427POPE   D2A 4471   0.137   4.619   5.090 -0.0445  0.2419 -0.0385
  427POPE   C3A 4472   0.026   4.403   4.774  0.0271  0.1506 -0.0593
  427POPE   C4A 4473   0.184   3.985   4.699 -0.0258 -0.0753  0.0579
  427POPE   C1B 4474   0.382   5.065   5.274 -0.2116 -0.3051  0.2849
  427POPE   C2B 4475   0.538   5.215   4.832 -0.2767 -0.1234  0.0240
  427POPE   C3B 4476   0.436   5.477   4.483  0.2535 -0.0395 -0.1678
  427POPE   C4B 4477   0.379   5.597   4.122  0.0227 -0.0139  0.1373
  428POPS   CNO 4478  14.059   2.498   6.701 -0.2910  0.1238 -0.1091
  428POPS   PO4 4479  13.647   2.535   6.688 -0.0871  0.1161  0.1466
  428POPS   GL1 4480  13.383   2.597   6.292  0.0631 -0.2324  0.1142
  428POPS   GL2 4481  13.364   2.859   6.101  0.0622 -0.0962  0.0027
  428POPS   C1A 4482  13.505   2.311   5.911 -0.0148 -0.0660  0.1587
  428POPS   D2A 4483  13.310   1.997   5.750  0.0868  0.0258 -0.0276
  428POPS   C3A 4484  13.245   1.936   5.300  0.1252  0.1662 -0.0920
  428POPS   C4A 4485  13.329   1.899   4.883 -0.2645 -0.1904  0.1392
  428POPS   C1B 4486  13.661   2.783   5.808 -0.2320 -0.0110 -0.0605
  428POPS   C2B 4487  13.670   2.779   5.340  0.1950  0.1754  0.2616
  428POPS   C3B 4488  13.815   2.900   4.914 -0.1167  0.1677  0.1480
  428POPS   C4B 4489  13.979   3.094   4.521 -0.0524 -0.3311 -0.2656
  429POSM   NC3 4490  14.179   4.693   6.923 -0.2279 -0.0390 -0.0815
  429POSM   PO4 4491  13.807   4.418   6.736 -0.0228 -0.1386 -0.0751
  429POSM   AM1 4492  14.017   4.162   6.488 -0.1236 -0.3337  0.0463
  429POSM   AM2 4493  13.885   4.032   6.337 -0.0165  0.2064  0.5194
  429POSM   T1A 4494  14.337   4.020   6.158 -0.0413 -0.2683 -0.0569
  429POSM   C2A 4495  14.808   4.073   6.151  0.1537  0.1673  0.1284
  429POSM   C3A 4496  15.182   3.945   5.889 -0.0761 -0.0304 -0.0485
  429POSM   C1B 4497  13.944   4.160   5.834  0.1592 -0.0934 -0.1157
  429POSM   D2B 4498  13.904   4.207   5.426 -0.2088 -0.0405  0.1127
  429POSM   C3B 4499  13.823   4.611   5.188  0.3317 -0.2111  0.2352
  429POSM   C4B 4500  13.568   4.748   4.790 -0.0827 -0.2207  0.1502
  430POPE   NH3 4501   0.894  12.676   6.605  0.0425  0.0332 -0.1974
  430POPE   PO4 4502   1.180  12.958   6.449  0.1910  0.0404 -0.1933
  430POPE   GL1 4503   1.067  13.145   6.067 -0.2775  0.2529  0.1967
  430POPE   GL2 4504   1.320  13.425   6.071  0.0645  0.2054 -0.2391
  430POPE   C1A 4505   1.117  13.250   5.621 -0.0322 -0.1361 -0.2969
  430POPE   D2A 4506   1.079  13.396   5.192 -0.2587 -0.1021 -0.1806
  430POPE   C3A 4507   1.256  13.126   4.946 -0.1305  0.2915 -0.0937
  430POPE   C4A 4508   1.134  12.913   4.652  0.1729 -0.1207  0.2624
  430POPE   C1B 4509   1.616  13.413   5.687  0.1741 -0.0820 -0.1626
  430POPE   C2B 4510   1.576  13.413   5.230  0.3628  0.0267 -0.1669
  430POPE   C3B 4511   1.612  13.524   4.789  0.2467  0.1583 -0.1187
  430POPE   C4B 4512   1.379  13.278   4.431  0.2653  0.1720  0.5682
  431POPC   NC3 4513  10.967   0.670   6.735 -0.0675  0.0653 -0.1546
  431POPC   PO4 4514  11.060   0.221   6.632  0.2297  0.2800 -0.1234
  431POPC   GL1 4515  10.702   0.096   6.367 -0.4134 -0.4074  0.1105
  431POPC   GL2 4516  10.357  -0.009   6.403 -0.1239  0.2232 -0.1078
  431POPC   C1A 4517  10.807   0.022   5.895 -0.3040 -0.2499  0.0454
  431POPC   D2A 4518  11.101   0.137   5.583  0.4044  0.0006 -0.2747
  431POPC   C3A 4519  11.366  -0.088   5.298 -0.2783  0.0697  0.2012
  431POPC   C4A 4520  11.484  -0.530   5.467  0.0257  0.0257 -0.2305
  431POPC   C1B 4521  10.309  -0.115   5.989  0.0277 -0.0300 -0.0384
  431POPC   C2B 4522  10.436  -0.126   5.602  0.2100  0.2259 -0.2050
  431POPC   C3B 4523  10.753  -0.150   5.351 -0.1304  0.1385 -0.4275
  431POPC   C4B 4524  10.977  -0.458   5.201 -0.0421 -0.0238  0.1298
  432CHOL   ROH 4525   0.706   3.717   6.321 -0.2548 -0.2665 -0.0867
  432CHOL    R1 4526   0.625   3.835   6.077 -0.1413 -0.0821 -0.0369
  432CHOL    R2 4527   0.768   3.804   5.842 -0.1551 -0.0987 -0.0475
  432CHOL    R3 4528   0.529   3.719   5.746 -0.2272  0.1523 -0.0961
  432CHOL    R4 4529   0.686   3.783   5.507 -0.0776 -0.1068 -0.0656
  432CHOL    R5 4530   0.488   3.858   5.556 -0.0046  0.1417 -0.1514
  432CHOL    C1 4531   0.414   3.690   5.222 -0.1002  0.1242 -0.1217
  432CHOL    C2 4532   0.175   3.581   5.027  0.3487  0.0793  0.0923
  433CHOL   ROH 4533   0.460  11.571   6.095 -0.1367 -0.1177  0.0279
  433CHOL    R1 4534   0.513  11.689   5.844 -0.0836  0.0025  0.0955
  433CHOL    R2 4535   0.625  11.941   5.818  0.0112 -0.0267  0.2400
  433CHOL    R3 4536   0.806  11.808   5.664 -0.0323 -0.0073  0.1704
  433CHOL    R4 4537   0.761  12.062   5.524 -0.1578 -0.0318  0.1582
  433CHOL    R5 4538   0.743  11.862   5.439 -0.1545 -0.0494  0.1917
  433CHOL    C1 4539   1.009  12.008   5.208 -0.2971 -0.0165  0.0453
  433CHOL    C2 4540   0.860  12.001   4.849  0.0913 -0.0293 -0.2447
  434POPE   NH3 4541   2.575  12.876   6.625 -0.0188  0.1347 -0.1932
  434POPE   PO4 4542   2.135  12.961   6.519 -0.3224 -0.3997  0.0309
  434POPE   GL1 4543   2.118  13.124   6.118 -0.0797 -0.0423 -0.0559
  434POPE   GL2 4544   1.813  12.995   5.999  0.0409 -0.1378 -0.0363
  434POPE   C1A 4545   2.107  13.468   5.805  0.1534  0.0049 -0.3110
  434POPE   D2A 4546   2.152  13.428   5.407  0.1672 -0.0683  0.0435
  434POPE   C3A 4547   2.083  13.449   5.035  0.1082 -0.1622 -0.2108
  434POPE   C4A 4548   2.073  13.741   4.708 -0.2727  0.1988 -0.0923
  434POPE   C1B 4549   1.887  13.006   5.625  0.0592 -0.1587  0.1054
  434POPE   C2B 4550   1.873  12.998   5.138  0.1010 -0.1905 -0.0924
  434POPE   C3B 4551   1.686  12.871   4.751 -0.2065 -0.0523  0.1941
  434POPE   C4B 4552   1.559  12.354   4.466 -0.1045  0.1098 -0.0152
  435CHOL   ROH 4553  13.355   1.627   6.092 -0.2026 -0.2071  0.1126
  435CHOL    R1 4554  13.439   1.482   5.864 -0.2525 -0.1102  0.0304
  435CHOL    R2 4555  13.268   1.423   5.654 -0.2267  0.2364 -0.0924
  435CHOL    R3 4556  13.461   1.544   5.506 -0.0352  0.1591  0.0875
  435CHOL    R4 4557  13.342   1.346   5.325 -0.1005  0.3527 -0.0923
  435CHOL    R5 4558  13.554   1.367   5.373 -0.1049  0.1495  0.0452
  435CHOL    C1 4559  13.566   1.415   4.995  0.1527  0.3479  0.0766
  435CHOL    C2 4560  13.686   1.554   4.606 -0.0091 -0.2197  0.3246
  436POPS   CNO 4561   0.138  12.577   6.293  0.1279 -0.3254 -0.0284
  436POPS   PO4 4562   0.167  12.222   6.527 -0.1616 -0.1130 -0.1543
  436POPS   GL1 4563   0.238  12.136   6.129  0.2204  0.1738 -0.0667
  436POPS   GL2 4564   0.078  11.919   5.873  0.0254 -0.0737 -0.0043
  436POPS   C1A 4565   0.265  12.380   5.770 -0.2484  0.0550 -0.0216
  436POPS   D2A 4566   0.364  12.680   5.503 -0.1480  0.1806 -0.0032
  436POPS   C3A 4567   0.254  12.760   5.114  0.0538 -0.1794 -0.0818
  436POPS   C4A 4568   0.175  12.840   4.740 -0.1731  0.1481 -0.1396
  436POPS   C1B 4569   0.221  11.906   5.431 -0.1190 -0.0615 -0.0064
  436POPS   C2B 4570   0.350  12.215   5.258 -0.2762 -0.1131  0.0557
  436POPS   C3B 4571   0.727  12.453   5.186 -0.1214  0.0080 -0.0798
  436POPS   C4B 4572   0.810  12.551   4.813 -0.1129 -0.0223  0.0378
  437POSM   NC3 4573  11.637   0.276   7.328 -0.0251  0.2109 -0.4989
  437POSM   PO4 4574  11.916   0.329   7.003  0.3688 -0.0325 -0.0269
  437POSM   AM1 4575  12.076   0.435   6.610 -0.0718  0.1082 -0.0721
  437POSM   AM2 4576  11.654   0.520   6.513  0.3167  0.3792 -0.3074
  437POSM   T1A 4577  12.070   0.484   6.083  0.1057  0.1164 -0.1211
  437POSM   C2A 4578  12.238   0.638   5.706  0.0023 -0.1171  0.0131
  437POSM   C3A 4579  12.386   0.659   5.291  0.1396  0.1622  0.0973
  437POSM   C1B 4580  11.621   0.644   6.049 -0.1562 -0.2520  0.0750
  437POSM   D2B 4581  11.500   0.661   5.710  0.1405 -0.1910  0.1739
  437POSM   C3B 4582  11.806   0.637   5.302 -0.2940 -0.0224 -0.1920
  437POSM   C4B 4583  11.975   0.799   4.930 -0.3027 -0.1039  0.0444
  438CHOL   ROH 4584  12.859  15.141   6.418 -0.1807 -0.0991  0.0767
  438CHOL    R1 4585  12.841  15.091   6.140 -0.1902 -0.0111  0.0626
  438CHOL    R2 4586  12.641  15.198   5.982 -0.0679  0.2113  0.0701
  438CHOL    R3 4587  12.850  15.290   5.835  0.0317  0.0572  0.1094
  438CHOL    R4 4588  12.638  15.237   5.639  0.0584  0.0860  0.0526
  438CHOL    R5 4589  12.842  15.160   5.634  0.0313 -0.0201  0.1506
  438CHOL    C1 4590  12.833  15.345   5.301  0.2253 -0.1316  0.0792
  438CHOL    C2 4591  12.771  15.106   4.984  0.0962  0.0919 -0.0272
  439CHOL   ROH 4592   1.625  10.939   5.899 -0.0498 -0.0727  0.0360
  439CHOL    R1 4593   1.702  10.990   5.631 -0.1252 -0.1343  0.0015
  439CHOL    R2 4594   1.639  10.820   5.423 -0.3805 -0.0702  0.0239
  439CHOL    R3 4595   1.533  11.045   5.314 -0.2229  0.0337  0.0817
  439CHOL    R4 4596   1.577  10.865   5.086 -0.3355  0.0640  0.0330
  439CHOL    R5 4597   1.649  11.070   5.106 -0.1956  0.0114  0.0928
  439CHOL    C1 4598   1.442  11.102   4.787 -0.1614  0.2397  0.0926
  439CHOL    C2 4599   1.152  11.120   4.653 -0.0112 -0.0167 -0.0044
  440POPS   CNO 4600   1.099   3.224   7.113  0.4013  0.3724 -0.1820
  440POPS   PO4 4601   0.679   3.104   6.853  0.1433  0.0432 -0.0640
  440POPS   GL1 4602   0.622   3.135   6.455  0.1735  0.2279  0.2265
  440POPS   GL2 4603   0.742   2.862   6.184 -0.2251 -0.1411 -0.0636
  440POPS   C1A 4604   0.607   3.302   6.005  0.1043 -0.1740 -0.0970
  440POPS   D2A 4605   0.861   3.334   5.578  0.0238 -0.2661 -0.0607
  440POPS   C3A 4606   0.784   3.352   5.135 -0.1948 -0.0842 -0.1418
  440POPS   C4A 4607   0.677   3.324   4.754 -0.2149  0.0133  0.0193
  440POPS   C1B 4608   0.674   2.860   5.835 -0.1131 -0.0532  0.1647
  440POPS   C2B 4609   0.763   2.856   5.399 -0.1359  0.0718 -0.0772
  440POPS   C3B 4610   0.874   2.578   5.029  0.1182 -0.0838 -0.0668
  440POPS   C4B 4611   1.181   2.343   5.005 -0.0065  0.1981  0.0074
  441POPS   CNO 4612   3.017   1.800   7.019 -0.4203  0.0971 -0.1274
  441POPS   PO4 4613   2.938   2.031   6.694 -0.0628  0.0449  0.0148
  441POPS   GL1 4614   2.539   1.948   6.391 -0.0369 -0.4432 -0.4208
  441POPS   GL2 4615   2.257   1.716   6.421 -0.2348 -0.1204 -0.2520
  441POPS   C1A 4616   2.296   2.085   5.990 -0.1142  0.1310 -0.0733
  441POPS   D2A 4617   1.995   2.367   5.868  0.2976 -0.1234  0.0345
  441POPS   C3A 4618   2.003   2.705   5.462 -0.0832  0.0800  0.3034
  441POPS   C4A 4619   1.830   2.730   5.086 -0.0089 -0.1173  0.1142
  441POPS   C1B 4620   2.381   1.373   6.175  0.1561 -0.2092 -0.0251
  441POPS   C2B 4621   2.220   1.295   5.825 -0.1354 -0.0498 -0.1057
  441POPS   C3B 4622   2.307   1.122   5.356  0.0038 -0.1244 -0.0783
  441POPS   C4B 4623   2.136   0.833   4.869 -0.2569 -0.1776  0.0286
  442CHOL   ROH 4624  14.716  12.785   6.012 -0.0965 -0.0539  0.0634
  442CHOL    R1 4625  14.795  12.734   5.745  0.0027 -0.1422  0.1083
  442CHOL    R2 4626  14.650  12.572   5.576  0.0177 -0.1331  0.0780
  442CHOL    R3 4627  14.658  12.790   5.413  0.1641 -0.1687  0.0379
  442CHOL    R4 4628  14.625  12.561   5.231 -0.2446 -0.1522  0.0964
  442CHOL    R5 4629  14.780  12.715   5.220 -0.0669 -0.3435 -0.0393
  442CHOL    C1 4630  14.618  12.759   4.878 -0.2600 -0.1967  0.0694
  442CHOL    C2 4631  14.863  12.812   4.574  0.0210 -0.1030  0.1911
  443POPE   NH3 4632   1.663  14.489   6.384 -0.0967 -0.0879 -0.0819
  443POPE   PO4 4633   2.063  14.264   6.479 -0.0656 -0.0304 -0.0186
  443POPE   GL1 4634   1.942  14.279   6.019  0.1383  0.2769 -0.1260
  443POPE   GL2 4635   1.852  14.019   5.843 -0.1988 -0.0422  0.1919
  443POPE   C1A 4636   1.995  14.368   5.541  0.0690  0.2853  0.0679
  443POPE   D2A 4637   2.040  14.389   5.085 -0.0498 -0.3142  0.0482
  443POPE   C3A 4638   2.275  14.662   4.771 -0.1705 -0.1595  0.0877
  443POPE   C4A 4639   2.491  14.660   4.418 -0.0414 -0.2329 -0.0049
  443POPE   C1B 4640   1.827  13.816   5.477 -0.1315  0.1769 -0.0844
  443POPE   C2B 4641   1.741  13.967   5.104  0.0092 -0.0556  0.3889
  443POPE   C3B 4642   1.656  14.137   4.747 -0.0436  0.1653  0.0469
  443POPE   C4B 4643   1.453  13.862   4.437 -0.2779  0.0655  0.1770
  444POPC   NC3 4644   3.239   0.610   7.392  0.2792 -0.0336 -0.0303
  444POPC   PO4 4645   3.231   0.817   6.981 -0.2814 -0.0568  0.2581
  444POPC   GL1 4646   3.188   0.972   6.579  0.2606 -0.0642  0.0389
  444POPC   GL2 4647   3.077   1.279   6.394 -0.3112  0.1740  0.2755
  444POPC   C1A 4648   3.465   0.897   6.229 -0.1432  0.5736 -0.2680
  444POPC   D2A 4649   3.658   1.046   5.939 -0.2146  0.0979  0.2493
  444POPC   C3A 4650   3.732   0.868   5.521 -0.0719  0.1372 -0.1063
  444POPC   C4A 4651   3.931   0.655   5.128 -0.0811 -0.2018 -0.0492
  444POPC   C1B 4652   3.256   1.329   5.986  0.0082  0.0229 -0.0892
  444POPC   C2B 4653   3.579   1.456   5.678  0.2041  0.1935  0.1095
  444POPC   C3B 4654   3.643   1.304   5.236  0.2358 -0.0603 -0.0010
  444POPC   C4B 4655   3.412   1.273   4.793 -0.0775 -0.1058  0.0680
  445CHOL   ROH 4656  13.650  13.860   6.022  0.0568  0.0070 -0.0672
  445CHOL    R1 4657  13.544  13.964   5.781  0.0345  0.0985 -0.0186
  445CHOL    R2 4658  13.702  14.030   5.564  0.0006  0.0336 -0.0657
  445CHOL    R3 4659  13.533  13.864   5.431 -0.1418  0.1458 -0.0274
  445CHOL    R4 4660  13.664  14.020   5.221 -0.0288  0.0004 -0.0614
  445CHOL    R5 4661  13.450  13.996   5.250 -0.0458  0.1791 -0.0460
  445CHOL    C1 4662  13.484  13.858   4.896 -0.1796  0.0863 -0.0229
  445CHOL    C2 4663  13.126  14.018   4.659 -0.2182 -0.1513  0.4626
  446POPC   NC3 4664   4.078  15.332   6.749  0.2137  0.1475  0.0684
  446POPC   PO4 4665   3.871  15.661   6.684  0.0290 -0.2449  0.0782
  446POPC   GL1 4666   3.677  15.864   6.271 -0.1622 -0.2926  0.2298
  446POPC   GL2 4667   3.913  16.068   5.995  0.1167  0.0949 -0.0007
  446POPC   C1A 4668   3.392  16.119   5.809  0.1113 -0.2329 -0.1722
  446POPC   D2A 4669   3.224  16.440   5.594 -0.1815 -0.0707  0.1094
  446POPC   C3A 4670   3.271  16.457   5.176  0.2763  0.3976  0.1014
  446POPC   C4A 4671   3.487  16.225   4.898 -0.3018 -0.0889 -0.2995
  446POPC   C1B 4672   4.206  15.923   5.680 -0.0948  0.0031  0.2030
  446POPC   C2B 4673   4.468  15.953   5.269  0.0939 -0.2661 -0.2825
  446POPC   C3B 4674   4.405  16.240   4.936 -0.2043  0.3402 -0.1518
  446POPC   C4B 4675   4.387  16.510   4.604  0.0825 -0.1050  0.0462
  447CHOL   ROH 4676  11.256   0.033   6.199 -0.1788  0.2853 -0.1341
  447CHOL    R1 4677  11.393   0.175   5.996 -0.0892  0.1908 -0.1424
  447CHOL    R2 4678  11.665   0.153   5.956 -0.0649  0.1841 -0.0038
  447CHOL    R3 4679  11.591   0.090   5.703  0.0535  0.0501 -0.0058
  447CHOL    R4 4680  11.862   0.197   5.676  0.0073  0.1657  0.0448
  447CHOL    R5 4681  11.685   0.264   5.568  0.0157  0.0391 -0.0422
  447CHOL    C1 4682  11.907   0.165   5.274  0.1605  0.0291  0.0713
  447CHOL    C2 4683  12.184   0.279   4.986  0.1570  0.0833  0.0198
  448POSM   NC3 4684  14.681  13.489   7.151  0.0988  0.0503  0.0083
  448POSM   PO4 4685  14.838  13.137   6.810  0.2725 -0.1067 -0.0048
  448POSM   AM1 4686  14.738  13.077   6.419  0.0067  0.1103  0.1825
  448POSM   AM2 4687  14.421  13.184   6.319 -0.0762 -0.2430  0.1565
  448POSM   T1A 4688  14.939  13.304   6.056  0.0537  0.3704 -0.0391
  448POSM   C2A 4689  15.005  13.215   5.739  0.4345 -0.3118  0.1644
  448POSM   C3A 4690  14.846  13.260   5.416 -0.0586 -0.0893  0.0426
  448POSM   C1B 4691  14.481  13.125   5.797 -0.0815  0.0751 -0.2104
  448POSM   D2B 4692  14.287  13.168   5.507  0.0373 -0.4542 -0.0232
  448POSM   C3B 4693  14.350  13.161   5.099 -0.0131  0.1940 -0.3111
  448POSM   C4B 4694  14.113  13.381   4.735  0.0787  0.0493 -0.2243
  449CHOL   ROH 4695  13.574   0.549   6.096  0.0934 -0.2623  0.1580
  449CHOL    R1 4696  13.449   0.468   5.856  0.0601 -0.1275  0.1294
  449CHOL    R2 4697  13.324   0.646   5.685  0.0097 -0.0360  0.2647
  449CHOL    R3 4698  13.490   0.535   5.500 -0.0114  0.0987  0.1617
  449CHOL    R4 4699  13.335   0.734   5.351 -0.1536  0.0888  0.2903
  449CHOL    R5 4700  13.357   0.523   5.301 -0.0836  0.1131  0.2059
  449CHOL    C1 4701  13.496   0.681   4.983 -0.2684  0.2878  0.2085
  449CHOL    C2 4702  13.130   0.589   4.806 -0.3798 -0.1001 -0.5113
  450POPC   NC3 4703   0.654   2.594   6.667  0.5035 -0.0607  0.0935
  450POPC   PO4 4704   0.296   2.364   6.585  0.1026  0.1710 -0.2329
  450POPC   GL1 4705   0.414   2.483   6.234 -0.1661  0.1174 -0.1367
  450POPC   GL2 4706   0.730   2.263   6.229 -0.0947 -0.0272 -0.0991
  450POPC   C1A 4707   0.556   2.269   5.774 -0.1210 -0.0080 -0.1051
  450POPC   D2A 4708   0.443   2.213   5.401 -0.0884 -0.1331  0.2029
  450POPC   C3A 4709   0.733   2.019   5.030  0.0844 -0.0086 -0.2501
  450POPC   C4A 4710   0.917   1.999   4.625  0.0929  0.0217  0.0888
  450POPC   C1B 4711   0.997   2.049   5.909 -0.0982  0.1329 -0.1312
  450POPC   C2B 4712   1.514   2.022   5.747  0.2517  0.1809  0.0168
  450POPC   C3B 4713   1.548   1.816   5.405 -0.2680  0.2515 -0.2543
  450POPC   C4B 4714   1.520   1.984   5.083 -0.1271  0.1444  0.1707
  451POPE   NH3 4715   2.536  14.591   6.618  0.1265  0.0679 -0.1932
  451POPE   PO4 4716   2.589  14.972   6.501 -0.0708 -0.0191 -0.0825
  451POPE   GL1 4717   2.816  14.585   6.190 -0.0040  0.1249  0.3317
  451POPE   GL2 4718   2.537  14.342   6.194  0.3321  0.2932 -0.1565
  451POPE   C1A 4719   2.969  14.605   5.877  0.1524 -0.3073 -0.0225
  451POPE   D2A 4720   3.255  14.672   5.642 -0.1306  0.1123  0.2874
  451POPE   C3A 4721   3.213  14.489   5.191 -0.1724  0.1021 -0.1257
  451POPE   C4A 4722   2.914  14.322   4.943  0.0978 -0.1710 -0.0427
  451POPE   C1B 4723   2.450  14.514   5.878 -0.1069 -0.1701  0.1167
  451POPE   C2B 4724   2.156  14.786   5.782 -0.1269  0.1616 -0.0931
  451POPE   C3B 4725   1.895  14.825   5.439  0.2220 -0.1977  0.0823
  451POPE   C4B 4726   1.890  14.906   4.989 -0.0039  0.0111  0.1779
  452CHOL   ROH 4727  15.071  13.770   6.061 -0.0182 -0.2130  0.0182
  452CHOL    R1 4728  15.169  13.844   5.806 -0.0216 -0.1488  0.0364
  452CHOL    R2 4729  15.179  13.668   5.593  0.1212 -0.1329  0.0338
  452CHOL    R3 4730  15.037  13.862   5.467  0.0286 -0.2203  0.0142
  452CHOL    R4 4731  15.126  13.684   5.252  0.0234 -0.2514  0.0415
  452CHOL    R5 4732  15.156  13.900   5.263 -0.0420 -0.2439 -0.0299
  452CHOL    C1 4733  14.963  13.877   4.935 -0.1205 -0.4024  0.0276
  452CHOL    C2 4734  14.777  14.085   4.725  0.0559 -0.1653  0.0319
  453CHOL   ROH 4735  12.912   0.664   6.247  0.1901  0.4614 -0.1386
  453CHOL    R1 4736  12.975   0.633   5.972  0.0786  0.1056 -0.1301
  453CHOL    R2 4737  12.984   0.387   5.848 -0.2037 -0.0429  0.1254
  453CHOL    R3 4738  12.809   0.503   5.676 -0.1431 -0.0512  0.0589
  453CHOL    R4 4739  12.942   0.296   5.517  0.0379  0.0657  0.0634
  453CHOL    R5 4740  12.926   0.507   5.466 -0.0163  0.0757  0.1322
  453CHOL    C1 4741  12.754   0.353   5.163  0.2354  0.1211 -0.0353
  453CHOL    C2 4742  12.634   0.143   4.888 -0.0576  0.1351 -0.2192
  454POPE   NH3 4743  13.695  14.907   6.633 -0.2959 -0.0272 -0.1445
  454POPE   PO4 4744  13.241  14.790   6.610  0.2489  0.1642 -0.0249
  454POPE   GL1 4745  13.248  14.780   6.239  0.1529  0.0857 -0.0376
  454POPE   GL2 4746  12.929  14.638   6.222  0.1330 -0.2837  0.1327
  454POPE   C1A 4747  13.203  14.892   5.820  0.1060  0.0847  0.1839
  454POPE   D2A 4748  13.402  14.985   5.404 -0.0415  0.2188 -0.2401
  454POPE   C3A 4749  13.162  14.886   5.122  0.2636  0.0568  0.0211
  454POPE   C4A 4750  13.189  14.654   4.776  0.2143 -0.1279 -0.2809
  454POPE   C1B 4751  12.749  14.684   5.855  0.0541 -0.0622  0.1910
  454POPE   C2B 4752  12.829  14.744   5.443  0.1986 -0.2552 -0.3529
  454POPE   C3B 4753  12.781  14.486   5.089  0.1206 -0.1725 -0.2708
  454POPE   C4B 4754  12.673  14.073   5.216  0.0100 -0.0948  0.2739
  455POPE   NH3 4755   2.504   0.006   6.326 -0.3739 -0.2919 -0.0715
  455POPE   PO4 4756   2.400   0.469   6.340  0.3031 -0.0905  0.0620
  455POPE   GL1 4757   2.646   0.432   6.097  0.2265 -0.0329  0.1341
  455POPE   GL2 4758   2.989   0.702   6.165  0.1165  0.0645 -0.2149
  455POPE   C1A 4759   2.639   0.211   5.647  0.0925  0.0088  0.1712
  455POPE   D2A 4760   2.468   0.135   5.223  0.0027 -0.0636  0.2649
  455POPE   C3A 4761   2.772  -0.059   4.869  0.0615  0.1949 -0.0483
  455POPE   C4A 4762   2.985   0.083   4.485  0.4744 -0.2940 -0.2181
  455POPE   C1B 4763   2.876   0.708   5.746 -0.1419  0.4278 -0.0071
  455POPE   C2B 4764   2.971   0.571   5.353  0.1999  0.0411 -0.1244
  455POPE   C3B 4765   3.044   0.549   4.934 -0.0781 -0.0583  0.2373
  455POPE   C4B 4766   3.363   0.382   4.603 -0.0219  0.0334 -0.1727
  456POPE   NH3 4767  12.544   0.144   6.667 -0.2456 -0.3064  0.1395
  456POPE   PO4 4768  12.501  -0.252   6.804 -0.0299  0.0965 -0.0276
  456POPE   GL1 4769  12.327  -0.283   6.410 -0.0924 -0.0407 -0.1337
  456POPE   GL2 4770  12.181   0.021   6.373 -0.1329  0.3126 -0.0178
  456POPE   C1A 4771  11.937  -0.534   6.409 -0.1256 -0.0172 -0.0764
  456POPE   D2A 4772  11.571  -0.406   6.158 -0.0899  0.1089  0.1646
  456POPE   C3A 4773  11.140  -0.452   6.252  0.3270  0.1861  0.2518
  456POPE   C4A 4774  10.720  -0.440   6.236  0.0450 -0.4964  0.1473
  456POPE   C1B 4775  12.149  -0.099   5.961  0.0852 -0.0112  0.0072
  456POPE   C2B 4776  11.883  -0.331   5.718  0.1050 -0.1053  0.2873
  456POPE   C3B 4777  11.840  -0.341   5.240 -0.0158 -0.2089 -0.0082
  456POPE   C4B 4778  11.682  -0.186   4.851 -0.0648  0.2115 -0.0962
  457POPC   NC3 4779  14.933   2.799   6.671  0.1735  0.0494  0.0367
  457POPC   PO4 4780  14.485   2.910   6.477 -0.1928  0.3403  0.0379
  457POPC   GL1 4781  14.613   3.035   6.029 -0.1652  0.0204 -0.1553
  457POPC   GL2 4782  14.510   3.225   5.757 -0.0582  0.0262 -0.0772
  457POPC   C1A 4783  14.778   2.816   5.708 -0.2014  0.0714 -0.3207
  457POPC   D2A 4784  14.748   2.894   5.329 -0.2433 -0.2073  0.0290
  457POPC   C3A 4785  14.589   2.692   4.964 -0.0392 -0.2029  0.0395
  457POPC   C4A 4786  14.578   2.678   4.509  0.0812 -0.2453 -0.2089
  457POPC   C1B 4787  14.737   3.404   5.505  0.0384 -0.5481 -0.0705
  457POPC   C2B 4788  14.906   3.612   5.110 -0.0432  0.2720  0.0192
  457POPC   C3B 4789  15.108   3.566   4.740  0.1445 -0.0715 -0.1608
  457POPC   C4B 4790  15.312   3.701   4.462 -0.1693 -0.1015  0.0043
  458POPE   NH3 4791  13.857   2.037   6.743  0.0544  0.1805  0.3152
  458POPE   PO4 4792  14.251   1.776   6.639  0.0008 -0.0658 -0.3134
  458POPE   GL1 4793  14.219   1.952   6.192  0.0331 -0.1162 -0.1390
  458POPE   GL2 4794  14.009   2.142   6.294  0.0315  0.1557 -0.0403
  458POPE   C1A 4795  14.226   1.810   5.740  0.0871  0.1223  0.2157
  458POPE   D2A 4796  14.193   1.927   5.312 -0.2215  0.1986  0.0244
  458POPE   C3A 4797  14.238   1.856   4.925 -0.1748  0.0739  0.0902
  458POPE   C4A 4798  14.229   1.782   4.537 -0.2874 -0.2112 -0.0955
  458POPE   C1B 4799  13.991   2.330   5.910 -0.0468  0.0406 -0.2118
  458POPE   C2B 4800  13.994   2.354   5.476  0.1148  0.0323 -0.0594
  458POPE   C3B 4801  14.025   2.368   5.120  0.5477 -0.1785 -0.0274
  458POPE   C4B 4802  14.169   2.467   4.747  0.0465 -0.0916  0.3094
  459CHOL   ROH 4803  15.130   3.025   6.067  0.0970 -0.0808 -0.1632
  459CHOL    R1 4804  15.278   3.055   5.827  0.0905 -0.1435 -0.1752
  459CHOL    R2 4805  15.257   2.876   5.618 -0.0084 -0.1314 -0.1777
  459CHOL    R3 4806  15.202   3.101   5.474  0.0808 -0.1029 -0.1676
  459CHOL    R4 4807  15.258   2.895   5.273 -0.0363 -0.1225 -0.1773
  459CHOL    R5 4808  15.353   3.091   5.289  0.0558 -0.1679 -0.1834
  459CHOL    C1 4809  15.208   3.117   4.937  0.0312 -0.0906 -0.1675
  459CHOL    C2 4810  15.450   3.161   4.519 -0.0885  0.0427 -0.2563
  460POPE   NH3 4811   1.564   1.985   7.064 -0.0048 -0.3726 -0.0385
  460POPE   PO4 4812   1.367   1.564   6.836 -0.1124  0.0099  0.1467
  460POPE   GL1 4813   1.363   1.843   6.528 -0.0627 -0.0181  0.0696
  460POPE   GL2 4814   1.180   1.681   6.218  0.2246 -0.4596  0.0851
  460POPE   C1A 4815   1.647   1.832   6.173  0.3941  0.1088 -0.1819
  460POPE   D2A 4816   1.965   1.677   5.923 -0.0184  0.0525 -0.0275
  460POPE   C3A 4817   2.055   1.851   5.468  0.0031  0.0587 -0.1303
  460POPE   C4A 4818   2.079   1.791   5.058 -0.1190  0.1025 -0.1004
  460POPE   C1B 4819   1.266   1.599   5.835 -0.2898 -0.0806 -0.1337
  460POPE   C2B 4820   1.290   1.390   5.348  0.1469 -0.1098  0.1184
  460POPE   C3B 4821   1.174   1.214   4.915 -0.2187 -0.1563  0.0659
  460POPE   C4B 4822   1.105   0.980   4.630 -0.1464  0.1441 -0.2794
  461POPS   CNO 4823  13.527   1.266   6.465  0.0183 -0.3397  0.1683
  461POPS   PO4 4824  13.685   1.558   6.832  0.1380  0.4416 -0.2968
  461POPS   GL1 4825  13.802   1.648   6.366  0.1333 -0.2976  0.2409
  461POPS   GL2 4826  13.862   1.353   6.087  0.2075 -0.0728 -0.2353
  461POPS   C1A 4827  13.771   1.834   5.943  0.1548  0.1060  0.0727
  461POPS   D2A 4828  13.746   1.944   5.538  0.1805 -0.3180  0.1673
  461POPS   C3A 4829  13.766   1.901   5.064 -0.0398 -0.0554 -0.1338
  461POPS   C4A 4830  13.812   2.019   4.665  0.0934 -0.0368  0.2648
  461POPS   C1B 4831  13.951   1.398   5.665 -0.1471  0.2362  0.2106
  461POPS   C2B 4832  14.037   1.478   5.269 -0.0804  0.2375 -0.0648
  461POPS   C3B 4833  14.066   1.342   4.846  0.1201  0.3247 -0.1885
  461POPS   C4B 4834  14.066   1.172   4.467 -0.1992 -0.0150 -0.1555
  462POPC   NC3 4835  14.768  14.035   6.566  0.0495 -0.0927  0.1499
  462POPC   PO4 4836  14.476  13.606   6.632  0.3972  0.1638 -0.0993
  462POPC   GL1 4837  14.569  13.675   6.225 -0.2397 -0.1145 -0.2781
  462POPC   GL2 4838  14.371  13.854   6.118  0.0467 -0.0482 -0.4853
  462POPC   C1A 4839  14.684  13.643   5.737 -0.0762 -0.1419 -0.2615
  462POPC   D2A 4840  14.517  13.610   5.433 -0.4680 -0.3512  0.0085
  462POPC   C3A 4841  14.651  13.516   5.018 -0.0917 -0.2012  0.1572
  462POPC   C4A 4842  14.633  13.228   4.654  0.1540  0.1006  0.3287
  462POPC   C1B 4843  14.219  13.556   5.875  0.0052 -0.1734 -0.0410
  462POPC   C2B 4844  13.922  13.572   5.568  0.4020  0.2073  0.0831
  462POPC   C3B 4845  14.006  13.648   5.174 -0.1431  0.2266  0.2295
  462POPC   C4B 4846  13.983  13.912   4.747 -0.1522  0.1792 -0.0313
  463CHOL   ROH 4847   0.641  13.466   6.200 -0.0666 -0.1264  0.0816
  463CHOL    R1 4848   0.698  13.398   5.931 -0.0142 -0.1862  0.1096
  463CHOL    R2 4849   0.581  13.182   5.804 -0.0389 -0.1649  0.1190
  463CHOL    R3 4850   0.511  13.369   5.620  0.0665 -0.1836  0.0564
  463CHOL    R4 4851   0.557  13.124   5.464 -0.1248 -0.3052  0.1467
  463CHOL    R5 4852   0.649  13.320   5.430  0.0165 -0.3706  0.0551
  463CHOL    C1 4853   0.479  13.267   5.093 -0.0759 -0.4045  0.1042
  463CHOL    C2 4854   0.716  13.139   4.829  0.1988  0.0315 -0.1874
  464POPE   NH3 4855   3.221   0.412   6.582 -0.0201 -0.0883 -0.0331
  464POPE   PO4 4856   2.977   0.125   6.536 -0.3292  0.1283  0.2082
  464POPE   GL1 4857   3.119   0.190   6.128 -0.0253 -0.2776 -0.1396
  464POPE   GL2 4858   3.410  -0.115   6.104  0.2234 -0.1490 -0.1098
  464POPE   C1A 4859   3.126   0.084   5.694 -0.0702  0.4183  0.1567
  464POPE   D2A 4860   3.005   0.059   5.282 -0.1359 -0.2924  0.0787
  464POPE   C3A 4861   3.253  -0.143   5.044  0.0008  0.1723  0.0962
  464POPE   C4A 4862   3.523  -0.574   4.867 -0.0943  0.1972 -0.0546
  464POPE   C1B 4863   3.452  -0.345   5.761  0.1326 -0.1898 -0.0632
  464POPE   C2B 4864   3.506  -0.342   5.364  0.1361 -0.0577  0.1284
  464POPE   C3B 4865   3.723  -0.054   5.096  0.2346  0.2923 -0.0650
  464POPE   C4B 4866   3.997   0.162   4.892 -0.1827  0.0332 -0.0776
  465POPC   NC3 4867   1.042  13.474   6.529 -0.2346 -0.1690  0.1037
  465POPC   PO4 4868   0.972  13.885   6.451  0.0152 -0.0311 -0.1835
  465POPC   GL1 4869   0.994  13.807   5.986  0.0242 -0.2984  0.1116
  465POPC   GL2 4870   1.371  13.855   5.857  0.3366 -0.0410  0.0293
  465POPC   C1A 4871   0.771  13.816   5.608 -0.0394  0.1974  0.4147
  465POPC   D2A 4872   0.770  13.783   5.165 -0.1462  0.1055 -0.0753
  465POPC   C3A 4873   0.604  14.007   4.839  0.0329  0.0108  0.0476
  465POPC   C4A 4874   0.395  13.892   4.475 -0.0478  0.1000  0.0090
  465POPC   C1B 4875   1.289  13.783   5.485 -0.2091  0.0263  0.0999
  465POPC   C2B 4876   1.285  13.856   5.036  0.1350 -0.0014 -0.0399
  465POPC   C3B 4877   1.118  13.702   4.785  0.1573 -0.0081  0.3271
  465POPC   C4B 4878   0.825  13.559   4.638  0.2115 -0.1453  0.1996
  466POSM   NC3 4879   0.294  13.242   6.763  0.3196 -0.1005 -0.1466
  466POSM   PO4 4880   0.754  13.138   6.736  0.1562  0.1269  0.1972
  466POSM   AM1 4881   0.583  12.980   6.350 -0.0198  0.0325 -0.1447
  466POSM   AM2 4882   0.321  13.047   6.239  0.0140 -0.1655 -0.1575
  466POSM   T1A 4883   0.701  12.729   5.983 -0.1358  0.1193 -0.1798
  466POSM   C2A 4884   0.965  12.766   5.668 -0.1011  0.0939 -0.0429
  466POSM   C3A 4885   0.923  12.886   5.271  0.1415 -0.0373 -0.1228
  466POSM   C1B 4886   0.215  12.967   5.914 -0.1522 -0.1310  0.0143
  466POSM   D2B 4887  -0.170  12.835   5.793  0.1471 -0.0204  0.2401
  466POSM   C3B 4888  -0.190  12.875   5.383 -0.2726  0.0536 -0.1365
  466POSM   C4B 4889  -0.255  12.882   4.927 -0.0049 -0.1193  0.2397
  467POPC   NC3 4890  15.284   3.625   7.047  0.1105  0.0254  0.2895
  467POPC   PO4 4891  15.270   3.309   6.664  0.1625  0.0049  0.1368
  467POPC   GL1 4892  15.494   3.332   6.257 -0.1844 -0.1845 -0.0132
  467POPC   GL2 4893  15.621   3.572   6.105 -0.0327 -0.3112  0.1065
  467POPC   C1A 4894  15.701   2.975   6.110  0.0353 -0.3447  0.1593
  467POPC   D2A 4895  15.642   2.579   5.847 -0.0815  0.0242 -0.2351
  467POPC   C3A 4896  15.704   2.660   5.354 -0.1748  0.0409 -0.0672
  467POPC   C4A 4897  15.502   2.665   4.897 -0.1642  0.4089 -0.2071
  467POPC   C1B 4898  15.627   3.393   5.756  0.3166  0.1179 -0.1473
  467POPC   C2B 4899  15.860   3.232   5.421 -0.1197 -0.0392 -0.0699
  467POPC   C3B 4900  15.842   3.043   5.075  0.0157  0.0056  0.0644
  467POPC   C4B 4901  16.004   2.758   4.735 -0.0331  0.0388  0.1046
  468CHOL   ROH 4902   0.997  14.288   5.994 -0.0958 -0.2110 -0.1668
  468CHOL    R1 4903   1.059  14.373   5.731 -0.1594 -0.0317 -0.1262
  468CHOL    R2 4904   1.049  14.201   5.513  0.0750  0.0389 -0.2002
  468CHOL    R3 4905   0.884  14.392   5.412 -0.1427 -0.1161 -0.1400
  468CHOL    R4 4906   0.968  14.237   5.179  0.0870  0.0970 -0.1961
  468CHOL    R5 4907   0.983  14.452   5.203 -0.1823  0.1036 -0.0940
  468CHOL    C1 4908   0.766  14.436   4.890 -0.1104 -0.0146 -0.1373
  468CHOL    C2 4909   0.718  14.788   4.656 -0.2023 -0.2013 -0.0429
  469POPE   NH3 4910  14.625   0.765   6.702 -0.1268 -0.0094 -0.4681
  469POPE   PO4 4911  14.198   0.730   6.668 -0.0532  0.1089  0.1775
  469POPE   GL1 4912  14.353   0.893   6.275 -0.3225  0.3593 -0.0279
  469POPE   GL2 4913  14.091   0.649   6.088  0.1846  0.1054  0.1059
  469POPE   C1A 4914  14.308   0.989   5.781 -0.0957  0.3837  0.4276
  469POPE   D2A 4915  14.289   1.056   5.318 -0.2785  0.3299 -0.3993
  469POPE   C3A 4916  14.465   1.102   5.057  0.0526 -0.1221  0.0802
  469POPE   C4A 4917  14.577   0.977   4.652  0.0650  0.1146  0.0082
  469POPE   C1B 4918  13.927   0.586   5.748  0.2162 -0.1403 -0.2408
  469POPE   C2B 4919  13.996   0.570   5.341  0.2429  0.1759  0.0628
  469POPE   C3B 4920  14.373   0.549   5.003 -0.1843 -0.2752  0.0217
  469POPE   C4B 4921  14.651   0.498   4.548 -0.1604  0.1705 -0.1751
  470CHOL   ROH 4922  15.282   2.051   6.552  0.0893  0.0811 -0.0087
  470CHOL    R1 4923  15.259   2.072   6.270  0.0850  0.1829 -0.0020
  470CHOL    R2 4924  15.468   2.153   6.109  0.1582  0.0151  0.0014
  470CHOL    R3 4925  15.417   1.920   5.980 -0.0937  0.0988 -0.0559
  470CHOL    R4 4926  15.558   2.085   5.783  0.1981 -0.0517  0.0265
  470CHOL    R5 4927  15.365   1.986   5.756  0.0797  0.2007 -0.0657
  470CHOL    C1 4928  15.562   1.827   5.471 -0.0151 -0.0120 -0.0127
  470CHOL    C2 4929  15.764   1.741   5.164 -0.2393  0.2577  0.4304
  471POPE   NH3 4930  13.307   0.326   6.994  0.1300 -0.0273 -0.1426
  471POPE   PO4 4931  12.965   0.409   6.683 -0.0253 -0.0516 -0.2360
  471POPE   GL1 4932  12.998   0.139   6.322  0.0745  0.3781 -0.0346
  471POPE   GL2 4933  12.694   0.135   6.202  0.0386  0.1780  0.1014
  471POPE   C1A 4934  13.276   0.028   5.998 -0.0286  0.0383 -0.1349
  471POPE   D2A 4935  13.319  -0.054   5.700 -0.2155 -0.1325  0.2448
  471POPE   C3A 4936  13.281  -0.007   5.374  0.1040 -0.1119 -0.2147
  471POPE   C4A 4937  13.210   0.124   5.045  0.0883  0.1335  0.0336
  471POPE   C1B 4938  12.478   0.260   5.926 -0.2354  0.0702 -0.0804
  471POPE   C2B 4939  12.373   0.199   5.552  0.0000 -0.2913  0.0859
  471POPE   C3B 4940  12.335  -0.107   5.261 -0.1893  0.0765  0.2882
  471POPE   C4B 4941  12.262  -0.201   4.899 -0.2577  0.0654  0.2459
  472CHOL   ROH 4942   1.958   1.103   6.229  0.1906  0.0590 -0.1074
  472CHOL    R1 4943   1.969   0.920   6.013  0.2589  0.1333 -0.1672
  472CHOL    R2 4944   1.746   0.847   5.868  0.2562 -0.0372 -0.0754
  472CHOL    R3 4945   1.897   0.927   5.657  0.0742  0.1695 -0.1309
  472CHOL    R4 4946   1.671   0.780   5.537  0.2634 -0.2221 -0.0410
  472CHOL    R5 4947   1.884   0.743   5.502  0.3230  0.1113 -0.0927
  472CHOL    C1 4948   1.769   0.817   5.146  0.0967 -0.1357 -0.0730
  472CHOL    C2 4949   1.694   1.039   4.846  0.0873  0.0047 -0.2860
  473CHOL   ROH 4950   1.451  14.354   5.977 -0.0957 -0.1454 -0.1352
  473CHOL    R1 4951   1.544  14.421   5.718 -0.0678 -0.1960 -0.1387
  473CHOL    R2 4952   1.481  14.272   5.494 -0.2402 -0.1067 -0.1507
  473CHOL    R3 4953   1.394  14.511   5.398 -0.0286 -0.0095 -0.1052
  473CHOL    R4 4954   1.409  14.337   5.162 -0.6497 -0.1287 -0.0719
  473CHOL    R5 4955   1.503  14.533   5.186 -0.3150 -0.2548 -0.2855
  473CHOL    C1 4956   1.286  14.600   4.879 -0.6894 -0.0503  0.0169
  473CHOL    C2 4957   1.537  14.787   4.634  0.1215  0.0188  0.1866
  474POSM   NC3 4958  13.255  14.209   7.093 -0.1865 -0.2163 -0.0032
  474POSM   PO4 4959  13.567  14.427   6.996 -0.0806 -0.0941  0.2510
  474POSM   AM1 4960  13.585  14.387   6.504  0.1551 -0.5371  0.2372
  474POSM   AM2 4961  13.779  14.198   6.402  0.1958  0.0329  0.2718
  474POSM   T1A 4962  13.557  14.482   6.065  0.0284  0.0362  0.1875
  474POSM   C2A 4963  13.649  14.542   5.717 -0.0610  0.1514  0.3560
  474POSM   C3A 4964  13.744  14.565   5.289 -0.0605  0.4665  0.3566
  474POSM   C1B 4965  14.024  14.130   5.994  0.2928 -0.0297 -0.1634
  474POSM   D2B 4966  14.211  14.002   5.602  0.2655 -0.0212  0.1015
  474POSM   C3B 4967  14.135  14.195   5.310  0.1188 -0.0881  0.0121
  474POSM   C4B 4968  14.035  14.365   4.890 -0.0125  0.1714  0.0094
  475POPC   NC3 4969   0.267  14.075   6.682  0.4752 -0.0016 -0.0889
  475POPC   PO4 4970   0.050  13.661   6.663 -0.1240 -0.1478  0.1344
  475POPC   GL1 4971   0.167  13.560   6.340  0.0019  0.1238 -0.1078
  475POPC   GL2 4972   0.165  13.815   6.243 -0.0675 -0.0925  0.1385
  475POPC   C1A 4973   0.006  13.424   5.918 -0.1702  0.1895  0.0890
  475POPC   D2A 4974   0.046  13.254   5.521  0.0523 -0.1240  0.4496
  475POPC   C3A 4975  -0.064  13.349   5.049 -0.0259  0.3178 -0.0359
  475POPC   C4A 4976  -0.404  13.415   4.726  0.0083  0.0867  0.0464
  475POPC   C1B 4977   0.293  13.803   5.757  0.3825  0.1804 -0.1865
  475POPC   C2B 4978   0.225  13.705   5.350  0.0620  0.0412 -0.1907
  475POPC   C3B 4979   0.127  13.849   4.984  0.0260  0.0736 -0.3541
  475POPC   C4B 4980  -0.082  13.957   4.643  0.3879 -0.1122 -0.3786
  476POPE   NH3 4981  14.126  15.179   6.822 -0.0772  0.0877 -0.2604
  476POPE   PO4 4982  13.896  15.282   6.414 -0.1455 -0.1964  0.3864
  476POPE   GL1 4983  13.820  15.541   6.050 -0.1372 -0.1719  0.0992
  476POPE   GL2 4984  14.102  15.573   6.039  0.1034 -0.0681 -0.3396
  476POPE   C1A 4985  13.791  15.539   5.576  0.0044 -0.0162  0.0408
  476POPE   D2A 4986  13.708  15.620   5.213 -0.0825 -0.3732  0.0536
  476POPE   C3A 4987  13.555  15.231   4.961 -0.0115 -0.2669  0.2414
  476POPE   C4A 4988  13.652  14.833   4.792 -0.1656 -0.1110 -0.0292
  476POPE   C1B 4989  14.256  15.643   5.686 -0.1537  0.0942  0.4039
  476POPE   C2B 4990  14.285  15.597   5.256  0.1574 -0.0856 -0.1740
  476POPE   C3B 4991  14.163  15.522   4.985  0.3062 -0.0818 -0.1522
  476POPE   C4B 4992  14.268  15.607   4.543  0.0704  0.0118 -0.0254
  477CHOL   ROH 4993   0.828   1.353   6.152 -0.0727 -0.0619  0.1553
  477CHOL    R1 4994   0.877   1.152   5.959  0.0120  0.0148  0.0966
  477CHOL    R2 4995   0.838   1.192   5.688  0.0751  0.1039  0.1017
  477CHOL    R3 4996   1.096   1.109   5.671  0.0939  0.1536  0.1369
  477CHOL    R4 4997   0.978   1.037   5.413  0.1622  0.2044  0.0885
  477CHOL    R5 4998   1.086   0.904   5.549  0.1557  0.1844  0.0769
  477CHOL    C1 4999   1.303   0.869   5.237  0.2306  0.3096  0.1137
  477CHOL    C2 5000   1.335   0.630   4.901  0.3771 -0.2566  0.1815
  478CHOL   ROH 5001   2.717  15.106   6.071 -0.2161  0.1477 -0.1180
  478CHOL    R1 5002   2.741  15.165   5.795 -0.0896  0.1027 -0.1167
  478CHOL    R2 5003   2.954  15.078   5.643 -0.0774 -0.0212 -0.0300
  478CHOL    R3 5004   2.759  14.974   5.485 -0.0734  0.0557 -0.0871
  478CHOL    R4 5005   3.000  14.969   5.318 -0.0530  0.0554 -0.0532
  478CHOL    R5 5006   2.808  15.059   5.267 -0.0281  0.1037 -0.0578
  478CHOL    C1 5007   2.843  14.808   4.981 -0.0351  0.1722 -0.1203
  478CHOL    C2 5008   3.050  15.004   4.690  0.3467  0.3279 -0.2397
  479CHOL   ROH 5009   0.105  14.382   6.276 -0.1949  0.0056  0.1052
  479CHOL    R1 5010   0.078  14.259   6.022 -0.0262  0.0412  0.0691
  479CHOL    R2 5011  -0.151  14.282   5.870  0.0382 -0.0179 -0.0366
  479CHOL    R3 5012   0.023  14.370   5.680  0.0957  0.0829  0.0613
  479CHOL    R4 5013  -0.202  14.256   5.529  0.1954  0.0400 -0.0651
  479CHOL    R5 5014   0.009  14.205   5.507  0.2258  0.1136  0.0180
  479CHOL    C1 5015  -0.068  14.323   5.152  0.3408  0.1683  0.0102
  479CHOL    C2 5016  -0.243  14.353   4.857 -0.3107 -0.1365  0.2176
  480POPS   CNO 5017  14.475   2.219   6.640  0.3527 -0.3126 -0.1911
  480POPS   PO4 5018  14.852   2.297   6.749  0.1413 -0.0055  0.0429
  480POPS   GL1 5019  14.814   2.241   6.297  0.0422 -0.1901  0.0974
  480POPS   GL2 5020  14.825   2.615   6.267  0.1230  0.4796 -0.1228
  480POPS   C1A 5021  14.923   1.965   5.891  0.0609 -0.0275  0.0549
  480POPS   D2A 5022  15.030   1.961   5.380 -0.2601 -0.3494  0.0424
  480POPS   C3A 5023  15.452   2.280   5.202 -0.0776  0.1763  0.0200
  480POPS   C4A 5024  15.749   2.211   4.885 -0.1919 -0.2516  0.2272
  480POPS   C1B 5025  15.078   2.461   5.969 -0.1520  0.4010 -0.1916
  480POPS   C2B 5026  15.136   2.392   5.577  0.3182 -0.1727 -0.3448
  480POPS   C3B 5027  15.024   2.466   5.049  0.1020 -0.1485 -0.0144
  480POPS   C4B 5028  15.086   2.646   4.719  0.3453 -0.2149 -0.3073
  481CHOL   ROH 5029  14.320   2.499   6.210 -0.0312 -0.0551 -0.0169
  481CHOL    R1 5030  14.488   2.449   5.987  0.0393 -0.2191  0.0709
  481CHOL    R2 5031  14.474   2.216   5.841 -0.3249 -0.0827 -0.1123
  481CHOL    R3 5032  14.443   2.387   5.631  0.1768  0.1466 -0.0161
  481CHOL    R4 5033  14.559   2.144   5.513 -0.4819 -0.1450 -0.1408
  481CHOL    R5 5034  14.636   2.348   5.494  0.1041 -0.3248 -0.0095
  481CHOL    C1 5035  14.580   2.262   5.127 -0.1023  0.0341 -0.0672
  481CHOL    C2 5036  14.571   2.161   4.735 -0.2392  0.0469  0.0757
  482CHOL   ROH 5037  13.699  14.938   6.079  0.0072 -0.0880  0.0366
  482CHOL    R1 5038  13.717  15.023   5.810 -0.1575 -0.2887 -0.0390
  482CHOL    R2 5039  13.946  15.136   5.705 -0.3455 -0.0141 -0.1544
  482CHOL    R3 5040  13.919  14.940   5.518 -0.0523 -0.2199  0.0104
  482CHOL    R4 5041  14.057  15.158   5.378 -0.6421  0.0141 -0.2567
  482CHOL    R5 5042  13.873  15.058   5.314 -0.4819 -0.4532 -0.0438
  482CHOL    C1 5043  14.096  14.987   5.013 -0.5396 -0.1626 -0.1615
  482CHOL    C2 5044  14.435  15.104   4.787  0.2047  0.0463 -0.2109
  483POPE   NH3 5045   0.919  14.018   7.353 -0.1918  0.1139  0.1006
  483POPE   PO4 5046   0.735  14.077   6.945 -0.0896  0.1673 -0.2559
  483POPE   GL1 5047   0.623  14.306   6.446 -0.0117 -0.0003  0.1044
  483POPE   GL2 5048   0.579  14.053   6.230  0.4298 -0.0472  0.0196
  483POPE   C1A 5049   0.529  14.544   6.145  0.1053  0.0620 -0.2285
  483POPE   D2A 5050   0.410  14.717   5.886 -0.0952  0.2997 -0.1405
  483POPE   C3A 5051   0.417  14.639   5.464 -0.1253  0.1733 -0.2884
  483POPE   C4A 5052   0.378  14.797   5.062 -0.1408 -0.2052  0.1343
  483POPE   C1B 5053   0.567  14.229   5.757 -0.0605 -0.0671  0.2929
  483POPE   C2B 5054   0.461  14.184   5.323 -0.0851  0.1166  0.0568
  483POPE   C3B 5055   0.247  14.359   4.802  0.0436  0.1278  0.0869
  483POPE   C4B 5056   0.207  14.703   4.472  0.2033 -0.1185 -0.0430
  484POPS   CNO 5057   0.805   0.887   7.277  0.0956  0.2037 -0.2170
  484POPS   PO4 5058   0.903   0.640   6.865  0.2163 -0.0933  0.0759
  484POPS   GL1 5059   1.056   0.799   6.416  0.0474  0.1029  0.1321
  484POPS   GL2 5060   1.178   1.112   6.381 -0.3503 -0.2377  0.1351
  484POPS   C1A 5061   1.296   0.739   6.039 -0.1910 -0.1640  0.0613
  484POPS   D2A 5062   1.214   0.469   5.749 -0.2288 -0.1767  0.2834
  484POPS   C3A 5063   1.441   0.366   5.342 -0.1165  0.1029  0.0412
  484POPS   C4A 5064   1.477   0.173   4.927  0.3130  0.5162  0.0527
  484POPS   C1B 5065   1.475   1.208   6.133 -0.0661 -0.3004 -0.0629
  484POPS   C2B 5066   1.628   1.346   5.704 -0.1714 -0.0639 -0.0808
  484POPS   C3B 5067   1.858   1.351   5.332 -0.1860 -0.3876  0.1623
  484POPS   C4B 5068   1.646   1.531   4.956  0.2700 -0.3331 -0.1161
  485POPE   NH3 5069   0.817  14.583   6.806 -0.1104  0.0686 -0.2200
  485POPE   PO4 5070   1.038  14.812   6.767 -0.0298  0.1061 -0.1440
  485POPE   GL1 5071   0.936  14.795   6.343  0.3149 -0.0398 -0.2564
  485POPE   GL2 5072   1.205  14.743   6.208 -0.1471  0.0608  0.1560
  485POPE   C1A 5073   0.861  14.798   5.801  0.0896 -0.1734  0.2002
  485POPE   D2A 5074   0.965  14.890   5.514 -0.2651  0.2031  0.0548
  485POPE   C3A 5075   0.980  15.002   5.049 -0.0774  0.0618  0.2470
  485POPE   C4A 5076   1.065  15.265   4.714  0.2911  0.2634 -0.0569
  485POPE   C1B 5077   1.387  14.880   5.804  0.0523  0.2659  0.2439
  485POPE   C2B 5078   1.430  15.013   5.413  0.3453  0.1524 -0.3641
  485POPE   C3B 5079   1.457  15.116   5.009 -0.1433  0.1505  0.2510
  485POPE   C4B 5080   1.685  15.250   4.668  0.1139 -0.0274  0.3345
  486CHOL   ROH 5081  14.459   1.443   6.096  0.0328 -0.0445 -0.0532
  486CHOL    R1 5082  14.606   1.431   5.854  0.1912  0.2082  0.0283
  486CHOL    R2 5083  14.484   1.398   5.609  0.3850 -0.0956 -0.0263
  486CHOL    R3 5084  14.623   1.623   5.546 -0.0413  0.1874 -0.0032
  486CHOL    R4 5085  14.560   1.499   5.287  0.7116 -0.2689 -0.0084
  486CHOL    R5 5086  14.758   1.558   5.358  0.4622  0.2918  0.2985
  486CHOL    C1 5087  14.735   1.768   5.041  0.5015 -0.1043  0.0238
  486CHOL    C2 5088  14.596   1.513   4.798 -0.0609 -0.3246  0.0738
  487POPE   NH3 5089  14.814  14.809   6.615 -0.2497  0.1440  0.0736
  487POPE   PO4 5090  14.532  14.427   6.606  0.0479  0.0668 -0.0428
  487POPE   GL1 5091  14.949  14.434   6.280  0.3418 -0.0452 -0.4040
  487POPE   GL2 5092  14.860  14.256   6.135 -0.0200  0.0774  0.2282
  487POPE   C1A 5093  15.163  14.700   6.104  0.0112  0.0287  0.2581
  487POPE   D2A 5094  15.366  14.865   5.760 -0.1372  0.0498  0.0727
  487POPE   C3A 5095  15.357  14.794   5.298  0.1735 -0.0543  0.2086
  487POPE   C4A 5096  15.358  14.891   4.852  0.1243  0.1204  0.2201
  487POPE   C1B 5097  14.682  14.114   5.773  0.1693  0.0076 -0.0148
  487POPE   C2B 5098  14.637  14.124   5.345  0.1470 -0.1387  0.1032
  487POPE   C3B 5099  14.403  13.921   5.036  0.0591  0.0259 -0.0710
  487POPE   C4B 5100  14.457  13.757   4.518 -0.0306 -0.0124 -0.2222
  488POPC   NC3 5101   1.356  15.138   6.972  0.0061 -0.0557  0.0236
  488POPC   PO4 5102   1.506  14.933   6.554 -0.2004 -0.1622 -0.1096
  488POPC   GL1 5103   1.546  15.105   6.276 -0.2516  0.2319  0.3741
  488POPC   GL2 5104   1.844  14.990   6.088 -0.1171  0.2470 -0.0450
  488POPC   C1A 5105   1.904  15.461   6.213 -0.3315  0.2410 -0.2406
  488POPC   D2A 5106   2.176  15.455   5.881  0.3343 -0.0792 -0.0298
  488POPC   C3A 5107   2.314  15.225   5.504  0.0795  0.1495 -0.3181
  488POPC   C4A 5108   2.388  15.029   5.050  0.1355  0.4092  0.0954
  488POPC   C1B 5109   1.757  15.175   5.733 -0.0672  0.1111 -0.2407
  488POPC   C2B 5110   1.845  15.357   5.249  0.1156  0.0460 -0.1772
  488POPC   C3B 5111   2.085  15.388   4.870 -0.2471 -0.2077  0.1404
  488POPC   C4B 5112   2.215  15.107   4.530 -0.2732  0.0118 -0.3184
  489POPE   NH3 5113  13.925   0.355   6.467 -0.1105  0.2081  0.4261
  489POPE   PO4 5114  14.139   0.215   6.777 -0.1048  0.1856  0.1780
  489POPE   GL1 5115  14.380   0.067   6.414  0.4020 -0.2767  0.0921
  489POPE   GL2 5116  14.451   0.357   6.353 -0.0625 -0.0499 -0.1010
  489POPE   C1A 5117  14.462  -0.226   6.047  0.0267 -0.0523 -0.2482
  489POPE   D2A 5118  14.433  -0.475   5.661 -0.2953 -0.1844  0.1392
  489POPE   C3A 5119  14.601  -0.408   5.256  0.0904  0.2554 -0.0214
  489POPE   C4A 5120  14.936  -0.491   5.019  0.0563 -0.2954  0.0793
  489POPE   C1B 5121  14.568   0.553   5.968  0.2164  0.2473 -0.2067
  489POPE   C2B 5122  14.557   0.594   5.494 -0.0139 -0.2443 -0.0016
  489POPE   C3B 5123  14.914   0.608   5.170 -0.1564  0.3856 -0.0042
  489POPE   C4B 5124  15.132   0.777   4.762 -0.3662  0.3719  0.0104
  490CHOL   ROH 5125   0.251   1.886   6.360 -0.1672 -0.2192 -0.0140
  490CHOL    R1 5126   0.418   1.907   6.133 -0.2497  0.0352 -0.0560
  490CHOL    R2 5127   0.613   1.721   6.074  0.0045  0.3032 -0.1244
  490CHOL    R3 5128   0.485   1.710   5.835 -0.0530  0.1487 -0.0861
  490CHOL    R4 5129   0.752   1.605   5.779 -0.0352  0.2463 -0.1196
  490CHOL    R5 5130   0.653   1.768   5.674 -0.1304  0.1536 -0.1567
  490CHOL    C1 5131   0.713   1.529   5.383 -0.1123  0.0681 -0.0809
  490CHOL    C2 5132   0.703   1.271   5.091  0.1021  0.0460  0.2374
  491POPS   CNO 5133   1.811   0.892   7.353 -0.1731  0.0961 -0.3415
  491POPS   PO4 5134   1.749   0.954   6.958  0.2261  0.2298  0.1503
  491POPS   GL1 5135   1.601   0.737   6.516  0.2547 -0.1437  0.0374
  491POPS   GL2 5136   1.417   0.506   6.744  0.0487 -0.2505  0.1598
  491POPS   C1A 5137   1.707   0.457   6.240 -0.2433  0.0614  0.0214
  491POPS   D2A 5138   2.114   0.477   5.939  0.0923 -0.0023 -0.1702
  491POPS   C3A 5139   2.053   0.282   5.487 -0.1505  0.1196  0.0722
  491POPS   C4A 5140   1.918   0.347   5.092 -0.0871 -0.0077  0.0200
  491POPS   C1B 5141   1.228   0.367   6.392  0.2725 -0.1811 -0.1161
  491POPS   C2B 5142   1.016   0.294   6.228 -0.1653  0.2768  0.1659
  491POPS   C3B 5143   0.749   0.134   5.921  0.0486  0.0420 -0.3959
  491POPS   C4B 5144   0.736  -0.112   5.635 -0.0267  0.3083  0.4178
  492POSM   NC3 5145  14.412  14.473   7.074 -0.0652 -0.1421  0.2365
  492POSM   PO4 5146  14.449  14.803   6.930  0.0544 -0.0752 -0.4221
  492POSM   AM1 5147  14.376  14.872   6.479 -0.2233  0.0225 -0.0340
  492POSM   AM2 5148  14.121  14.661   6.318 -0.0942  0.1272 -0.0188
  492POSM   T1A 5149  14.621  14.760   6.114  0.1257 -0.1258  0.0213
  492POSM   C2A 5150  14.799  14.610   5.783  0.0115  0.1078  0.1695
  492POSM   C3A 5151  14.947  14.571   5.315 -0.1722  0.2195  0.0608
  492POSM   C1B 5152  14.107  14.679   5.973  0.2804  0.1222  0.0020
  492POSM   D2B 5153  14.267  14.487   5.677  0.2367 -0.1373  0.0101
  492POSM   C3B 5154  14.279  14.653   5.295  0.1026  0.0351  0.0909
  492POSM   C4B 5155  14.559  14.524   4.953 -0.2021 -0.2237  0.0647
  493POPE   NH3 5156   0.084   1.826   6.885  0.0281  0.2303 -0.0695
  493POPE   PO4 5157  -0.279   1.601   6.708  0.1134  0.0244  0.4665
  493POPE   GL1 5158  -0.169   1.534   6.305 -0.0095  0.0052 -0.0024
  493POPE   GL2 5159  -0.465   1.525   6.204 -0.0390  0.2233  0.1252
  493POPE   C1A 5160   0.105   1.482   5.864  0.0180  0.3190 -0.2023
  493POPE   D2A 5161   0.308   1.302   5.518  0.1179 -0.2476  0.0589
  493POPE   C3A 5162   0.192   1.269   5.075  0.0952 -0.1182 -0.4297
  493POPE   C4A 5163   0.219   1.395   4.659 -0.2697 -0.0685 -0.0567
  493POPE   C1B 5164  -0.342   1.463   5.784  0.2603 -0.2182  0.1397
  493POPE   C2B 5165  -0.190   1.448   5.403 -0.2778  0.0876 -0.1307
  493POPE   C3B 5166  -0.217   1.641   5.058 -0.0383 -0.1302 -0.0423
  493POPE   C4B 5167  -0.220   2.030   4.837 -0.1558 -0.0860 -0.2966
  494POSM   NC3 5168   0.380  14.025   7.349 -0.0807  0.0887 -0.1457
  494POSM   PO4 5169   0.308  14.469   7.013 -0.3231  0.0952 -0.1275
  494POSM   AM1 5170   0.315  14.776   6.691 -0.0859  0.0844  0.3207
  494POSM   AM2 5171   0.506  14.923   6.687 -0.2087 -0.4634 -0.2843
  494POSM   T1A 5172   0.123  14.870   6.350 -0.1161 -0.1535 -0.0378
  494POSM   C2A 5173  -0.094  15.246   6.200 -0.2574  0.0455 -0.1640
  494POSM   C3A 5174  -0.120  15.531   5.838 -0.0794 -0.0463  0.0489
  494POSM   C1B 5175   0.610  15.135   6.228 -0.0843 -0.0260  0.2986
  494POSM   D2B 5176   1.025  15.208   5.981 -0.1676  0.1767  0.0759
  494POSM   C3B 5177   1.204  15.391   5.610  0.1380  0.2440  0.2537
  494POSM   C4B 5178   1.098  15.404   5.265  0.1928 -0.1590  0.1459
  495CHOL   ROH 5179  15.450   0.992   6.185  0.0532  0.1814 -0.0250
  495CHOL    R1 5180  15.306   0.916   5.953 -0.0848  0.1873  0.0581
  495CHOL    R2 5181  15.329   1.051   5.712 -0.1030  0.0930  0.0074
  495CHOL    R3 5182  15.388   0.803   5.617 -0.2875  0.0266  0.0599
  495CHOL    R4 5183  15.394   0.977   5.381  0.0703  0.0253  0.0544
  495CHOL    R5 5184  15.278   0.794   5.404 -0.1421  0.1401 -0.0265
  495CHOL    C1 5185  15.486   0.702   5.098 -0.0019 -0.0765  0.1311
  495CHOL    C2 5186  15.679   0.623   4.770  0.0029  0.2932  0.0644
  496POPC   NC3 5187  15.109   0.561   6.869  0.0382  0.0287 -0.0247
  496POPC   PO4 5188  15.489   0.679   6.642  0.0030  0.1693 -0.2349
  496POPC   GL1 5189  15.847   0.396   6.534  0.0636 -0.1442 -0.1142
  496POPC   GL2 5190  15.810   0.141   6.196  0.0373 -0.2723  0.0972
  496POPC   C1A 5191  16.161   0.066   6.514 -0.1394 -0.1449  0.2796
  496POPC   D2A 5192  16.585  -0.122   6.451 -0.0739 -0.0588 -0.1476
  496POPC   C3A 5193  16.857   0.039   6.028  0.0279  0.0293 -0.1020
  496POPC   C4A 5194  17.118   0.268   5.813  0.0721 -0.0454 -0.0308
  496POPC   C1B 5195  15.720  -0.214   5.811 -0.0071  0.2129 -0.0232
  496POPC   C2B 5196  15.715  -0.264   5.360 -0.1953  0.1432 -0.0696
  496POPC   C3B 5197  16.058  -0.144   5.056 -0.1172 -0.3775  0.0002
  496POPC   C4B 5198  16.297   0.296   4.924 -0.3048 -0.1028 -0.1420
  497POSM   NC3 5199   0.928   1.474   6.613  0.2736  0.1792 -0.0726
  497POSM   PO4 5200   0.740   1.122   6.721 -0.0148  0.0665  0.0071
  497POSM   AM1 5201   0.469   0.918   6.461  0.1110  0.0795  0.1416
  497POSM   AM2 5202   0.401   1.184   6.305  0.1720 -0.3062  0.1380
  497POSM   T1A 5203   0.657   0.622   6.190  0.3156  0.1313 -0.2386
  497POSM   C2A 5204   0.753   0.713   5.798  0.0408  0.0617 -0.2071
  497POSM   C3A 5205   0.818   0.371   5.418  0.0990 -0.3079  0.1168
  497POSM   C1B 5206   0.384   1.008   5.907 -0.3362 -0.0485 -0.0699
  497POSM   D2B 5207   0.425   0.873   5.441  0.0549  0.2404 -0.1923
  497POSM   C3B 5208   0.679   0.773   5.122  0.0339  0.0024  0.4929
  497POSM   C4B 5209   0.689   0.798   4.754 -0.2042  0.1082 -0.1641
  498POSM   NC3 5210  14.863   1.358   6.985 -0.0583 -0.0187 -0.1158
  498POSM   PO4 5211  14.613   1.284   6.642  0.0976  0.1753 -0.0241
  498POSM   AM1 5212  14.848   1.030   6.269  0.4781  0.0714  0.1020
  498POSM   AM2 5213  15.027   0.652   6.316  0.0720  0.0051 -0.1274
  498POSM   T1A 5214  14.830   0.967   5.808  0.0094  0.0304  0.0643
  498POSM   C2A 5215  14.836   1.098   5.359 -0.0954 -0.1190 -0.5010
  498POSM   C3A 5216  14.948   1.251   4.905 -0.0863 -0.0858 -0.1678
  498POSM   C1B 5217  15.036   0.497   5.773  0.0346  0.2599  0.3229
  498POSM   D2B 5218  15.230   0.316   5.394  0.2685  0.3058  0.1390
  498POSM   C3B 5219  15.238   0.331   4.895 -0.0769 -0.2011 -0.3115
  498POSM   C4B 5220  15.357   0.408   4.452 -0.4379  0.0330 -0.0842
  499POPS   CNO 5221  15.304   0.235   6.525  0.2719 -0.0490  0.2765
  499POPS   PO4 5222  14.872   0.258   6.575  0.1533  0.0990 -0.2574
  499POPS   GL1 5223  14.874   0.107   6.172  0.1066  0.0522  0.0987
  499POPS   GL2 5224  14.908  -0.166   6.256  0.2696  0.0759  0.2993
  499POPS   C1A 5225  14.765   0.098   5.787 -0.1362 -0.0945 -0.1942
  499POPS   D2A 5226  14.725   0.139   5.395  0.0082 -0.2782  0.0227
  499POPS   C3A 5227  14.728   0.076   5.047 -0.2447 -0.0151  0.2178
  499POPS   C4A 5228  14.877  -0.064   4.605 -0.1125 -0.6946 -0.3252
  499POPS   C1B 5229  14.928  -0.357   5.828 -0.2965 -0.0451  0.0627
  499POPS   C2B 5230  15.063  -0.201   5.412 -0.0444 -0.2550 -0.1036
  499POPS   C3B 5231  15.314  -0.120   5.165  0.0439  0.1270  0.1157
  499POPS   C4B 5232  15.376  -0.114   4.723  0.0404  0.2096 -0.3528
  500CHOL   ROH 5233   0.046   0.483   6.113 -0.1352 -0.1861 -0.1824
  500CHOL    R1 5234   0.199   0.536   5.881  0.0366 -0.1526 -0.0632
  500CHOL    R2 5235   0.346   0.340   5.751  0.0342 -0.1648 -0.0560
  500CHOL    R3 5236   0.204   0.422   5.535  0.2036 -0.0068 -0.1100
  500CHOL    R4 5237   0.353   0.188   5.441  0.1492 -0.0283 -0.1214
  500CHOL    R5 5238   0.350   0.386   5.350  0.2957  0.0090 -0.0374
  500CHOL    C1 5239   0.222   0.177   5.058  0.3752  0.1996 -0.2102
  500CHOL    C2 5240   0.314   0.132   4.766  0.3321 -0.4222  0.0491
  501POPS   CNO 5241   7.490   7.967   2.251  0.0109 -0.0516  0.2434
  501POPS   PO4 5242   7.650   7.544   2.370 -0.2139 -0.0370  0.0589
  501POPS   GL1 5243   7.534   7.440   2.790 -0.2076  0.2845  0.0828
  501POPS   GL2 5244   7.836   7.503   2.843  0.0185 -0.1697 -0.1429
  501POPS   C1A 5245   7.510   7.244   3.185 -0.3865 -0.0569  0.0956
  501POPS   D2A 5246   7.320   7.259   3.601  0.0662  0.2554 -0.3284
  501POPS   C3A 5247   7.429   7.531   3.987  0.0004  0.1627  0.0002
  501POPS   C4A 5248   7.184   7.866   4.265  0.2382  0.1400  0.1630
  501POPS   C1B 5249   7.708   7.802   3.107  0.0597 -0.0686  0.0238
  501POPS   C2B 5250   7.646   7.702   3.563  0.2532 -0.0572  0.1311
  501POPS   C3B 5251   7.821   7.351   3.729  0.0525  0.2093 -0.0469
  501POPS   C4B 5252   7.759   7.077   4.159 -0.1127 -0.0413  0.1176
  502POPE   NH3 5253   8.091   8.371   2.672  0.0594  0.0486 -0.2061
  502POPE   PO4 5254   8.316   7.942   2.630  0.2553  0.2934  0.2298
  502POPE   GL1 5255   8.150   7.927   3.021  0.0358 -0.0150 -0.2657
  502POPE   GL2 5256   7.987   8.206   3.126 -0.0986 -0.2116 -0.0482
  502POPE   C1A 5257   8.125   7.894   3.517 -0.0436 -0.1250  0.0199
  502POPE   D2A 5258   8.143   7.765   3.839 -0.1823  0.1304  0.1314
  502POPE   C3A 5259   7.845   8.010   4.123  0.0833 -0.0744 -0.0818
  502POPE   C4A 5260   7.697   8.227   4.449 -0.2214  0.2791 -0.0774
  502POPE   C1B 5261   7.924   8.370   3.585  0.1258 -0.1898  0.0758
  502POPE   C2B 5262   7.890   8.508   3.975  0.0988 -0.1643  0.0311
  502POPE   C3B 5263   7.734   8.719   4.368 -0.0265  0.1107 -0.2279
  502POPE   C4B 5264   7.742   8.985   4.711 -0.3434  0.2468  0.0485
  503POSM   NC3 5265   7.234   8.676   2.403 -0.1723  0.0681 -0.1762
  503POSM   PO4 5266   7.581   8.422   2.647 -0.1838  0.0635 -0.0229
  503POSM   AM1 5267   7.501   8.253   2.953 -0.1328  0.2115  0.0483
  503POSM   AM2 5268   7.356   7.922   2.863  0.0813 -0.3620  0.0050
  503POSM   T1A 5269   7.474   8.143   3.396 -0.1387  0.0518  0.0301
  503POSM   C2A 5270   7.484   8.117   3.801 -0.3974 -0.0739 -0.5340
  503POSM   C3A 5271   7.378   8.323   4.128 -0.3134 -0.0520  0.1547
  503POSM   C1B 5272   7.258   7.706   3.258 -0.2762 -0.0411 -0.1013
  503POSM   D2B 5273   7.155   7.757   3.673  0.3042 -0.0257 -0.0479
  503POSM   C3B 5274   6.977   7.470   3.944  0.1585 -0.1748  0.1170
  503POSM   C4B 5275   7.205   7.148   4.108  0.3370  0.0945 -0.5141
  504CHOL   ROH 5276   7.007   8.252   3.102 -0.2226 -0.0266 -0.1312
  504CHOL    R1 5277   7.008   8.143   3.364 -0.1612 -0.0707 -0.1493
  504CHOL    R2 5278   7.041   8.299   3.590 -0.0466 -0.1166 -0.1343
  504CHOL    R3 5279   6.808   8.181   3.666 -0.0502 -0.0721 -0.0754
  504CHOL    R4 5280   6.911   8.309   3.909 -0.0012 -0.0297 -0.1180
  504CHOL    R5 5281   6.853   8.100   3.887 -0.0289 -0.0283 -0.0633
  504CHOL    C1 5282   6.617   8.204   4.168  0.0220  0.0625 -0.0533
  504CHOL    C2 5283   6.357   8.071   4.289 -0.1207 -0.0299  0.0685
  505POSM   NC3 5284   8.807   8.632   2.402  0.1381  0.0493 -0.0395
  505POSM   PO4 5285   8.833   8.080   2.370  0.2291 -0.1980  0.0863
  505POSM   AM1 5286   9.014   7.900   2.826 -0.0337  0.1489  0.0839
  505POSM   AM2 5287   8.810   7.788   2.918  0.0039  0.1552  0.1482
  505POSM   T1A 5288   9.125   7.575   3.195  0.0838  0.0150  0.1614
  505POSM   C2A 5289   9.121   7.681   3.667 -0.0887  0.0210  0.4811
  505POSM   C3A 5290   8.774   7.913   3.963  0.0414  0.0524  0.1903
  505POSM   C1B 5291   8.712   7.878   3.317  0.0334  0.1801  0.1800
  505POSM   D2B 5292   8.630   7.595   3.595 -0.0203 -0.0280  0.1316
  505POSM   C3B 5293   8.790   7.414   3.973  0.3261 -0.0320  0.0165
  505POSM   C4B 5294   9.169   7.344   3.984 -0.3507 -0.2964  0.1106
  506POSM   NC3 5295   7.654   8.817   2.052 -0.1815  0.3191  0.0604
  506POSM   PO4 5296   7.418   9.127   2.422  0.2740  0.0672  0.3907
  506POSM   AM1 5297   7.494   8.913   2.817  0.0112  0.3132  0.1605
  506POSM   AM2 5298   7.257   8.703   2.893  0.0273  0.0551  0.1424
  506POSM   T1A 5299   7.758   8.741   3.146 -0.1271 -0.2415 -0.1623
  506POSM   C2A 5300   7.856   8.819   3.505 -0.1051  0.0643  0.0402
  506POSM   C3A 5301   7.652   8.959   3.900  0.1898 -0.1388  0.0983
  506POSM   C1B 5302   7.293   8.625   3.292  0.1790  0.1217  0.1305
  506POSM   D2B 5303   7.435   8.584   3.666 -0.0563 -0.0675  0.1426
  506POSM   C3B 5304   7.209   8.733   3.950  0.0810  0.0224 -0.1010
  506POSM   C4B 5305   7.008   9.062   4.231  0.1557 -0.1149 -0.2704
  507POPE   NH3 5306   6.656   7.549   2.564 -0.1183 -0.4160 -0.1913
  507POPE   PO4 5307   6.844   7.074   2.524  0.0710  0.1914  0.0172
  507POPE   GL1 5308   7.123   6.769   2.835 -0.1442 -0.0784 -0.0130
  507POPE   GL2 5309   6.986   6.924   3.108 -0.1120  0.1028 -0.1803
  507POPE   C1A 5310   7.445   6.762   3.244 -0.2622  0.2067  0.2127
  507POPE   D2A 5311   7.776   6.904   3.549  0.1933 -0.0813 -0.2252
  507POPE   C3A 5312   7.985   6.737   3.946 -0.4751  0.2075 -0.0248
  507POPE   C4A 5313   8.179   6.801   4.333  0.0152  0.1555  0.0999
  507POPE   C1B 5314   6.798   7.238   3.461  0.3465 -0.1011 -0.3407
  507POPE   C2B 5315   6.594   7.122   3.910 -0.1233 -0.0328 -0.0262
  507POPE   C3B 5316   6.381   7.317   4.267  0.2763 -0.0288 -0.0681
  507POPE   C4B 5317   6.119   7.587   4.394  0.0120  0.0164  0.1857
  508CHOL   ROH 5318   8.467   7.416   2.851  0.4169  0.0078  0.0064
  508CHOL    R1 5319   8.598   7.377   3.098  0.3683 -0.0780  0.0197
  508CHOL    R2 5320   8.515   7.188   3.282  0.1639  0.0445  0.0542
  508CHOL    R3 5321   8.773   7.104   3.264  0.0808 -0.2290  0.0805
  508CHOL    R4 5322   8.708   7.085   3.550  0.1097  0.0886  0.1111
  508CHOL    R5 5323   8.878   7.191   3.462  0.2025 -0.1557 -0.0135
  508CHOL    C1 5324   9.063   6.947   3.689  0.0000 -0.1424  0.1690
  508CHOL    C2 5325   9.220   6.790   3.988 -0.1304 -0.0865 -0.0682
  509CHOL   ROH 5326   8.772   8.813   2.832 -0.0905 -0.1377 -0.1945
  509CHOL    R1 5327   8.798   8.747   3.106 -0.0429 -0.2244 -0.2197
  509CHOL    R2 5328   9.042   8.710   3.227 -0.0121  0.0202 -0.2101
  509CHOL    R3 5329   8.949   8.897   3.402 -0.2584 -0.1665 -0.1363
  509CHOL    R4 5330   9.120   8.721   3.564  0.0910  0.0642 -0.2348
  509CHOL    R5 5331   8.912   8.774   3.605  0.0096 -0.2809 -0.1504
  509CHOL    C1 5332   9.078   8.902   3.924 -0.0802 -0.0855 -0.1798
  509CHOL    C2 5333   9.098   8.840   4.330 -0.1611  0.2623 -0.0052
  510CHOL   ROH 5334   6.764   8.635   2.775  0.0800  0.2074  0.0803
  510CHOL    R1 5335   6.818   8.643   3.053  0.1216  0.3360  0.0701
  510CHOL    R2 5336   6.841   8.880   3.193 -0.2103  0.4002  0.0256
  510CHOL    R3 5337   6.651   8.767   3.352 -0.0139  0.1349  0.0782
  510CHOL    R4 5338   6.795   8.951   3.528 -0.2006  0.3112  0.0459
  510CHOL    R5 5339   6.759   8.739   3.563  0.0901  0.2591  0.0421
  510CHOL    C1 5340   6.590   8.886   3.872 -0.0105  0.0103  0.1071
  510CHOL    C2 5341   6.621   8.773   4.203  0.2408 -0.0759 -0.0243
  511POPS   CNO 5342   7.884   8.806   2.502 -0.0508 -0.1527  0.2415
  511POPS   PO4 5343   8.342   8.858   2.508 -0.1418  0.2703  0.0371
  511POPS   GL1 5344   8.264   8.868   2.868 -0.0525 -0.0903 -0.2252
  511POPS   GL2 5345   8.311   8.723   3.073 -0.0328  0.1428 -0.3063
  511POPS   C1A 5346   8.271   9.190   3.097  0.1023 -0.3531  0.2292
  511POPS   D2A 5347   8.085   9.262   3.523 -0.0140 -0.0846 -0.0366
  511POPS   C3A 5348   8.127   9.010   3.892  0.1035  0.0070 -0.0909
  511POPS   C4A 5349   8.094   9.061   4.381 -0.1407 -0.0441  0.0396
  511POPS   C1B 5350   8.414   8.823   3.521 -0.0332  0.4926  0.3804
  511POPS   C2B 5351   8.514   8.723   3.987 -0.2090  0.1217  0.0517
  511POPS   C3B 5352   8.626   8.981   4.408  0.1507  0.0412 -0.0760
  511POPS   C4B 5353   8.904   9.093   4.718  0.2883  0.0695  0.1386
  512POPC   NC3 5354   6.560   9.085   2.285 -0.0134 -0.0052  0.0156
  512POPC   PO4 5355   6.876   9.086   2.561 -0.0932 -0.1086  0.0012
  512POPC   GL1 5356   6.870   9.330   2.914 -0.0276  0.0218  0.0102
  512POPC   GL2 5357   7.186   9.279   2.924  0.1975 -0.3020  0.2525
  512POPC   C1A 5358   6.695   9.331   3.242  0.0197  0.3546  0.0066
  512POPC   D2A 5359   6.326   9.166   3.366 -0.0205  0.0746 -0.1755
  512POPC   C3A 5360   6.165   8.849   3.603 -0.2261  0.1414 -0.1665
  512POPC   C4A 5361   5.957   8.503   3.623  0.2412  0.1326  0.3618
  512POPC   C1B 5362   7.261   9.104   3.269  0.3281 -0.3008 -0.1418
  512POPC   C2B 5363   7.155   9.166   3.709 -0.0104  0.0511 -0.2895
  512POPC   C3B 5364   6.787   9.391   3.843  0.0303  0.2519  0.2091
  512POPC   C4B 5365   6.586   9.626   3.650 -0.1138 -0.2900  0.3246
  513POPC   NC3 5366   7.114   8.263   2.612  0.1394  0.1894 -0.0224
  513POPC   PO4 5367   6.761   8.117   2.603  0.1322  0.0097  0.0698
  513POPC   GL1 5368   6.744   7.816   2.982  0.0919  0.0034  0.2163
  513POPC   GL2 5369   6.602   7.502   3.055 -0.3154 -0.3618 -0.1819
  513POPC   C1A 5370   6.687   7.765   3.424 -0.0978  0.1480  0.3493
  513POPC   D2A 5371   6.514   7.705   3.920 -0.0065  0.1795 -0.2677
  513POPC   C3A 5372   6.661   7.707   4.342 -0.0008 -0.0420 -0.2449
  513POPC   C4A 5373   6.923   7.504   4.586  0.0718 -0.1020 -0.2187
  513POPC   C1B 5374   6.309   7.488   3.465 -0.1496  0.0653 -0.0245
  513POPC   C2B 5375   6.099   7.473   3.845 -0.0043  0.4042 -0.1951
  513POPC   C3B 5376   5.716   7.652   4.102  0.1966  0.1478  0.3498
  513POPC   C4B 5377   5.620   7.681   4.575  0.0855  0.2620  0.1242
  514POPE   NH3 5378  10.683   7.338   2.521 -0.1007 -0.2308 -0.0418
  514POPE   PO4 5379  10.437   7.653   2.576 -0.2190  0.1234 -0.0299
  514POPE   GL1 5380  10.153   7.721   2.924  0.1493 -0.0697  0.3892
  514POPE   GL2 5381   9.892   7.683   2.917 -0.4015 -0.3175 -0.1875
  514POPE   C1A 5382  10.136   7.737   3.379 -0.2909  0.3759  0.4034
  514POPE   D2A 5383  10.131   7.712   3.826 -0.1294 -0.2417  0.1016
  514POPE   C3A 5384   9.915   7.963   4.166  0.0419  0.2656 -0.5887
  514POPE   C4A 5385   9.739   8.307   4.356 -0.4873  0.5186  0.0469
  514POPE   C1B 5386   9.724   7.483   3.234 -0.1096  0.2437 -0.1555
  514POPE   C2B 5387   9.682   7.596   3.660  0.0941 -0.1611 -0.2032
  514POPE   C3B 5388   9.649   7.514   4.078  0.0008  0.2737  0.0421
  514POPE   C4B 5389   9.782   7.637   4.527 -0.2689 -0.0423 -0.1296
  515POPC   NC3 5390   6.412   8.238   2.177  0.1605  0.2425  0.0288
  515POPC   PO4 5391   6.366   7.880   2.406  0.1789 -0.1940 -0.0014
  515POPC   GL1 5392   6.269   7.935   2.834  0.0301 -0.3111 -0.0840
  515POPC   GL2 5393   6.277   8.225   2.846  0.1824 -0.5036  0.0544
  515POPC   C1A 5394   6.110   7.877   3.213 -0.1741  0.3443 -0.0156
  515POPC   D2A 5395   6.219   8.011   3.536  0.1243 -0.1947 -0.1218
  515POPC   C3A 5396   6.070   8.057   3.889 -0.1032 -0.2582 -0.0089
  515POPC   C4A 5397   5.884   8.071   4.301 -0.4591  0.0761  0.1365
  515POPC   C1B 5398   6.448   8.315   3.252 -0.3021  0.1605  0.0129
  515POPC   C2B 5399   6.426   8.451   3.749  0.0108  0.1251 -0.2357
  515POPC   C3B 5400   6.210   8.523   4.119 -0.1854  0.4343  0.0005
  515POPC   C4B 5401   5.976   8.501   4.583 -0.0472  0.2093  0.1948
  516CHOL   ROH 5402   8.579   8.383   2.837  0.0557  0.0215 -0.0907
  516CHOL    R1 5403   8.616   8.280   3.098 -0.1464 -0.1700 -0.1351
  516CHOL    R2 5404   8.649   8.442   3.320  0.1860 -0.3256 -0.0660
  516CHOL    R3 5405   8.441   8.296   3.417 -0.1128  0.0464 -0.1235
  516CHOL    R4 5406   8.579   8.397   3.655  0.2718 -0.5154 -0.0733
  516CHOL    R5 5407   8.529   8.189   3.612 -0.2392 -0.3740 -0.2810
  516CHOL    C1 5408   8.343   8.234   3.941  0.0412 -0.2768 -0.1314
  516CHOL    C2 5409   8.399   8.195   4.264  0.0491  0.1576  0.2271
  517CHOL   ROH 5410   8.946   6.652   3.114 -0.1390  0.1778  0.1441
  517CHOL    R1 5411   8.899   6.643   3.393 -0.1025  0.0600  0.1480
  517CHOL    R2 5412   8.744   6.447   3.512  0.0305 -0.0778  0.1050
  517CHOL    R3 5413   8.966   6.410   3.664  0.0735  0.0129  0.0643
  517CHOL    R4 5414   8.743   6.335   3.838  0.1333  0.0356  0.1446
  517CHOL    R5 5415   8.900   6.479   3.884  0.1180  0.0766  0.0560
  517CHOL    C1 5416   8.950   6.234   4.172  0.2336  0.1867  0.1294
  517CHOL    C2 5417   8.864   6.135   4.598 -0.3467 -0.2076  0.3132
  518POPS   CNO 5418   7.282   9.752   1.905 -0.2462 -0.1874  0.0665
  518POPS   PO4 5419   7.690   9.618   2.282 -0.1367  0.3235  0.1280
  518POPS   GL1 5420   7.726   9.495   2.616  0.1553 -0.0457 -0.0028
  518POPS   GL2 5421   7.964   9.321   2.735 -0.2593  0.1637 -0.1953
  518POPS   C1A 5422   7.736   9.368   3.145  0.1716  0.2739 -0.0181
  518POPS   D2A 5423   7.590   9.330   3.596  0.0265  0.2893  0.2783
  518POPS   C3A 5424   7.833   9.430   4.032  0.3535 -0.2297  0.1490
  518POPS   C4A 5425   7.860   9.859   4.214  0.0789  0.1481  0.1379
  518POPS   C1B 5426   8.192   9.629   2.912  0.1327  0.0491  0.1829
  518POPS   C2B 5427   8.192   9.744   3.322  0.3959 -0.1487 -0.2261
  518POPS   C3B 5428   8.188   9.749   3.795  0.1680 -0.0798 -0.0743
  518POPS   C4B 5429   8.370   9.396   4.051 -0.2283  0.1511  0.0167
  519POPC   NC3 5430   7.321   9.793   2.592 -0.0353 -0.2139 -0.5123
  519POPC   PO4 5431   6.997   9.971   2.282 -0.1065 -0.1680  0.2186
  519POPC   GL1 5432   6.793  10.002   2.668  0.1000  0.0780  0.2018
  519POPC   GL2 5433   6.834   9.790   2.923  0.0357 -0.0928 -0.1385
  519POPC   C1A 5434   6.645  10.264   2.933  0.0361  0.1149 -0.0132
  519POPC   D2A 5435   6.628  10.124   3.408 -0.0163  0.0013 -0.1222
  519POPC   C3A 5436   6.743  10.117   3.799 -0.1712  0.0136 -0.0980
  519POPC   C4A 5437   6.880   9.935   4.140 -0.0353 -0.1397 -0.0211
  519POPC   C1B 5438   7.027   9.764   3.326  0.0111  0.1866 -0.1594
  519POPC   C2B 5439   7.144   9.730   3.732  0.0912 -0.1298 -0.1614
  519POPC   C3B 5440   7.207   9.545   4.066 -0.3561 -0.3606 -0.1770
  519POPC   C4B 5441   7.348   9.715   4.296  0.0131  0.0845  0.0080
  520POSM   NC3 5442   8.025   5.930   2.520 -0.2263  0.1279  0.1164
  520POSM   PO4 5443   8.023   6.340   2.446  0.0707  0.2185 -0.1355
  520POSM   AM1 5444   8.077   6.400   2.915  0.0613 -0.0056  0.0529
  520POSM   AM2 5445   8.032   6.769   2.838 -0.1546  0.1069  0.2229
  520POSM   T1A 5446   7.808   6.447   3.241 -0.3293  0.1483  0.2835
  520POSM   C2A 5447   7.630   6.437   3.624 -0.1354 -0.0992 -0.0164
  520POSM   C3A 5448   7.419   6.758   3.929 -0.1524  0.4986 -0.0391
  520POSM   C1B 5449   8.001   7.102   3.088 -0.0666  0.0708  0.0249
  520POSM   D2B 5450   8.068   7.464   3.324 -0.0369 -0.0542 -0.0082
  520POSM   C3B 5451   8.277   7.239   3.716  0.0717 -0.2303  0.2810
  520POSM   C4B 5452   8.328   7.244   4.171 -0.1129 -0.2591  0.1064
  521POPE   NH3 5453   8.728   6.783   2.214 -0.3179 -0.1355  0.0881
  521POPE   PO4 5454   8.395   7.080   2.387 -0.0020 -0.1724  0.0464
  521POPE   GL1 5455   8.518   6.966   2.771  0.1304  0.0122  0.0833
  521POPE   GL2 5456   8.851   7.085   2.676  0.0457  0.1164 -0.0088
  521POPE   C1A 5457   8.431   6.704   3.128 -0.2033 -0.0979  0.1428
  521POPE   D2A 5458   8.251   6.730   3.498  0.3917  0.1381  0.1335
  521POPE   C3A 5459   8.481   6.800   3.849  0.2227 -0.1423  0.4175
  521POPE   C4A 5460   8.780   6.985   4.169  0.1913 -0.0912  0.2576
  521POPE   C1B 5461   9.197   7.121   2.884 -0.3296  0.2840  0.4775
  521POPE   C2B 5462   9.322   7.051   3.223 -0.0491 -0.2044  0.2158
  521POPE   C3B 5463   9.410   7.264   3.543  0.2617 -0.2066  0.0862
  521POPE   C4B 5464   9.579   7.070   3.854 -0.4583  0.0158 -0.1537
  522POPC   NC3 5465   9.447   9.131   2.256  0.0923 -0.2123 -0.2416
  522POPC   PO4 5466   9.266   8.810   2.576 -0.0529 -0.2000  0.2484
  522POPC   GL1 5467   9.389   8.815   2.941 -0.0470 -0.0803  0.1463
  522POPC   GL2 5468   9.540   8.558   3.186 -0.0151  0.2515 -0.0449
  522POPC   C1A 5469   9.404   9.058   3.268 -0.0581 -0.3168  0.2573
  522POPC   D2A 5470   9.132   9.342   3.438 -0.2619  0.0618 -0.2508
  522POPC   C3A 5471   9.269   9.308   3.844 -0.1154 -0.0197 -0.0481
  522POPC   C4A 5472   9.520   9.526   4.069 -0.0057  0.0957  0.1857
  522POPC   C1B 5473   9.536   8.416   3.515 -0.1470 -0.1887  0.1903
  522POPC   C2B 5474   9.393   8.497   4.022  0.0128 -0.0833  0.1420
  522POPC   C3B 5475   9.266   8.400   4.432  0.0218  0.2760  0.3001
  522POPC   C4B 5476   9.101   8.614   4.774  0.0341 -0.0132  0.0849
  523POPE   NH3 5477   6.478   9.958   2.260  0.0735 -0.1577  0.2107
  523POPE   PO4 5478   6.086  10.027   2.226  0.0927 -0.2535 -0.0412
  523POPE   GL1 5479   6.128   9.848   2.598  0.2428  0.3232 -0.0717
  523POPE   GL2 5480   6.336   9.889   2.763  0.1903  0.0993  0.2734
  523POPE   C1A 5481   6.166   9.419   2.771 -0.2721 -0.0800  0.0575
  523POPE   D2A 5482   6.413   9.081   2.861 -0.1515 -0.5291 -0.0070
  523POPE   C3A 5483   6.293   8.767   3.008 -0.1934 -0.0827 -0.1981
  523POPE   C4A 5484   5.942   8.823   3.166  0.1231  0.1923  0.1633
  523POPE   C1B 5485   6.312   9.685   3.162 -0.2306  0.0015 -0.2920
  523POPE   C2B 5486   6.099   9.585   3.492  0.1549 -0.0685  0.2941
  523POPE   C3B 5487   6.260   9.409   3.949  0.0781  0.0163 -0.0936
  523POPE   C4B 5488   6.537   9.298   4.290  0.1716  0.1353 -0.4626
  524CHOL   ROH 5489  10.118   8.214   3.098  0.2137 -0.1163 -0.1092
  524CHOL    R1 5490   9.996   8.326   3.328  0.1133 -0.0383 -0.1995
  524CHOL    R2 5491  10.004   8.203   3.576  0.0055  0.0456 -0.1540
  524CHOL    R3 5492  10.106   8.442   3.655 -0.0293  0.0725 -0.1902
  524CHOL    R4 5493   9.925   8.362   3.872  0.1395 -0.0214 -0.0811
  524CHOL    R5 5494   9.922   8.551   3.764  0.0002 -0.0079 -0.0564
  524CHOL    C1 5495   9.974   8.679   4.119  0.1850 -0.0353 -0.0727
  524CHOL    C2 5496  10.135   8.544   4.443  0.0201 -0.0369 -0.1913
  525CHOL   ROH 5497   5.376   8.894   2.985  0.1120  0.1288 -0.0483
  525CHOL    R1 5498   5.434   8.941   3.258  0.2414  0.0807 -0.0694
  525CHOL    R2 5499   5.299   8.814   3.463  0.1229  0.2851 -0.0350
  525CHOL    R3 5500   5.550   8.745   3.541  0.0520 -0.0420 -0.0714
  525CHOL    R4 5501   5.385   8.709   3.781 -0.0228 -0.0912 -0.1116
  525CHOL    R5 5502   5.567   8.827   3.765  0.1082 -0.2533  0.0136
  525CHOL    C1 5503   5.671   8.583   4.039 -0.1743 -0.6174 -0.1904
  525CHOL    C2 5504   5.468   8.550   4.380 -0.0740  0.2638  0.0899
  526POSM   NC3 5505   8.736   9.611   2.269  0.1479  0.2062 -0.0097
  526POSM   PO4 5506   9.166   9.546   2.313 -0.0797  0.2014  0.1474
  526POSM   AM1 5507   9.066   9.522   2.650  0.2037 -0.2135 -0.2037
  526POSM   AM2 5508   9.173   9.282   2.865  0.2367 -0.3850  0.0753
  526POSM   T1A 5509   8.989   9.761   3.049  0.1541 -0.0453  0.1029
  526POSM   C2A 5510   8.807   9.745   3.532 -0.1758  0.2703  0.1712
  526POSM   C3A 5511   8.676   9.846   3.903 -0.0790  0.0879 -0.1476
  526POSM   C1B 5512   8.763   9.276   3.104 -0.0346  0.0376  0.0682
  526POSM   D2B 5513   8.628   9.274   3.526  0.1196  0.1116  0.0499
  526POSM   C3B 5514   8.764   9.230   3.838 -0.2617 -0.0037  0.0021
  526POSM   C4B 5515   8.877   9.368   4.184  0.0636 -0.1811 -0.1674
  527CHOL   ROH 5516   5.976   9.980   3.231  0.2071 -0.2298 -0.1649
  527CHOL    R1 5517   6.116  10.092   3.450  0.0860 -0.1408 -0.1321
  527CHOL    R2 5518   6.023  10.076   3.709  0.0362 -0.2016 -0.1549
  527CHOL    R3 5519   6.268   9.969   3.757  0.0954 -0.0447 -0.0964
  527CHOL    R4 5520   6.132   9.962   4.017  0.0633 -0.0499 -0.1071
  527CHOL    R5 5521   6.327  10.049   3.975  0.0203  0.0548 -0.1098
  527CHOL    C1 5522   6.425   9.794   4.240  0.1347  0.1858 -0.0243
  527CHOL    C2 5523   6.200   9.773   4.538 -0.0234  0.0928 -0.3718
  528POPC   NC3 5524   4.732   6.464   2.061 -0.0690 -0.1557  0.1484
  528POPC   PO4 5525   5.067   6.515   2.355 -0.1088 -0.2399  0.0161
  528POPC   GL1 5526   5.113   6.440   2.842 -0.2129 -0.0517  0.0891
  528POPC   GL2 5527   5.360   6.425   2.804  0.1435 -0.3407  0.2900
  528POPC   C1A 5528   5.022   6.643   3.230  0.2438 -0.3242 -0.2976
  528POPC   D2A 5529   5.082   6.824   3.571 -0.3003 -0.0635 -0.1217
  528POPC   C3A 5530   5.125   6.815   4.080 -0.3932  0.2814 -0.2794
  528POPC   C4A 5531   5.384   6.871   4.485  0.1974  0.2514 -0.1576
  528POPC   C1B 5532   5.510   6.417   3.139 -0.2259  0.2232  0.2270
  528POPC   C2B 5533   5.626   6.359   3.583 -0.0972 -0.0078 -0.0139
  528POPC   C3B 5534   5.774   6.136   3.951 -0.0598 -0.0277 -0.1008
  528POPC   C4B 5535   5.947   6.168   4.255 -0.0910 -0.1565 -0.2603
  529CHOL   ROH 5536  10.274   7.262   2.836  0.1697 -0.4869  0.0373
  529CHOL    R1 5537  10.125   7.214   3.071  0.0417 -0.3347 -0.0117
  529CHOL    R2 5538  10.217   7.052   3.275 -0.0933 -0.2440  0.1155
  529CHOL    R3 5539  10.167   7.272   3.428 -0.1285 -0.1583 -0.0161
  529CHOL    R4 5540  10.143   7.045   3.613 -0.0052 -0.0628  0.1408
  529CHOL    R5 5541   9.994   7.201   3.578 -0.0728 -0.1286  0.0734
  529CHOL    C1 5542  10.052   7.246   3.952  0.0131  0.1230  0.0319
  529CHOL    C2 5543  10.034   7.304   4.240 -0.1626 -0.0060 -0.0903
  530POPE   NH3 5544   6.186   6.511   2.518 -0.0398 -0.2106  0.0923
  530POPE   PO4 5545   6.537   6.711   2.350  0.2573  0.2852  0.2920
  530POPE   GL1 5546   6.533   6.745   2.838  0.1204 -0.0030  0.4074
  530POPE   GL2 5547   6.328   6.595   2.970  0.0871  0.3774  0.2353
  530POPE   C1A 5548   6.782   6.478   3.129 -0.0286 -0.1401 -0.4210
  530POPE   D2A 5549   6.716   6.146   3.220  0.0709  0.0007  0.3085
  530POPE   C3A 5550   6.665   6.179   3.599 -0.1534  0.1059  0.0899
  530POPE   C4A 5551   6.871   6.262   3.963 -0.4138  0.2515  0.0077
  530POPE   C1B 5552   6.498   6.759   3.474 -0.0285  0.0436  0.0865
  530POPE   C2B 5553   6.492   6.607   3.857  0.1113 -0.2773 -0.0664
  530POPE   C3B 5554   6.254   6.586   4.238  0.1380 -0.1388 -0.2500
  530POPE   C4B 5555   6.164   6.886   4.565  0.2181 -0.2468 -0.0172
  531POPE   NH3 5556   8.988   5.996   2.243 -0.0925 -0.0644 -0.0386
  531POPE   PO4 5557   9.402   5.871   2.300  0.1206 -0.1493  0.0397
  531POPE   GL1 5558   9.486   5.701   2.664  0.1307  0.0906  0.3174
  531POPE   GL2 5559   9.787   5.886   2.857  0.1125  0.0677  0.1065
  531POPE   C1A 5560   9.376   5.665   3.080  0.0206 -0.0274  0.2340
  531POPE   D2A 5561   9.345   5.734   3.593  0.2935 -0.3346 -0.1808
  531POPE   C3A 5562   8.942   5.796   3.875  0.0514 -0.2489  0.2457
  531POPE   C4A 5563   8.941   5.722   4.267  0.2755 -0.1048 -0.1594
  531POPE   C1B 5564   9.727   5.896   3.297  0.0438  0.0454 -0.1708
  531POPE   C2B 5565   9.763   5.891   3.786 -0.2594  0.5149 -0.0221
  531POPE   C3B 5566   9.926   5.829   4.233  0.0854 -0.0785  0.1420
  531POPE   C4B 5567   9.855   5.948   4.653  0.0625 -0.0968  0.0579
  532POPS   CNO 5568   8.489   6.483   2.656  0.0903 -0.0554  0.4348
  532POPS   PO4 5569   8.599   6.021   2.583 -0.1681 -0.1909  0.0424
  532POPS   GL1 5570   8.333   5.963   2.950 -0.2217 -0.1414 -0.0479
  532POPS   GL2 5571   8.575   6.239   3.055  0.7014  0.2093  0.4537
  532POPS   C1A 5572   8.216   5.679   3.233 -0.2084  0.2065 -0.1084
  532POPS   D2A 5573   8.135   5.572   3.628 -0.0619 -0.0244  0.0173
  532POPS   C3A 5574   7.703   5.592   3.687  0.0198  0.1810  0.2531
  532POPS   C4A 5575   7.492   5.639   4.133  0.0347  0.1863  0.1123
  532POPS   C1B 5576   8.298   6.211   3.376 -0.0039  0.2534  0.1831
  532POPS   C2B 5577   8.217   6.282   3.787 -0.1584  0.2400 -0.1520
  532POPS   C3B 5578   8.312   6.324   4.198 -0.4529  0.0249 -0.1341
  532POPS   C4B 5579   8.601   6.563   4.288 -0.1672 -0.0710 -0.0982
  533POSM   NC3 5580   9.667   6.284   2.061  0.1057 -0.1037 -0.0709
  533POSM   PO4 5581   9.636   6.283   2.535  0.3180  0.0459  0.1081
  533POSM   AM1 5582   9.374   6.200   2.946 -0.0672 -0.0233  0.1109
  533POSM   AM2 5583   9.020   5.969   2.930  0.0262 -0.1434 -0.1100
  533POSM   T1A 5584   9.361   6.257   3.370  0.2913  0.3592 -0.0952
  533POSM   C2A 5585   9.387   6.209   3.812  0.2390 -0.3455 -0.1301
  533POSM   C3A 5586   9.574   6.480   4.141 -0.1591  0.1743 -0.0879
  533POSM   C1B 5587   8.894   5.928   3.364  0.1431  0.2517 -0.1060
  533POSM   D2B 5588   8.552   5.800   3.543 -0.1850  0.2157 -0.0376
  533POSM   C3B 5589   8.465   5.833   3.961 -0.0550  0.0703 -0.0813
  533POSM   C4B 5590   8.426   5.831   4.407  0.0735  0.0598  0.2890
  534POSM   NC3 5591   4.900   8.301   1.911 -0.2726 -0.3291  0.2545
  534POSM   PO4 5592   5.391   8.294   2.024 -0.0511 -0.0815 -0.2814
  534POSM   AM1 5593   5.611   8.188   2.426  0.1586 -0.0823  0.0566
  534POSM   AM2 5594   5.960   8.244   2.414  0.3751  0.0387  0.2148
  534POSM   T1A 5595   5.708   7.936   2.781  0.1415 -0.0870  0.0043
  534POSM   C2A 5596   6.040   7.544   2.880  0.0893  0.1135 -0.1464
  534POSM   C3A 5597   6.144   7.139   3.126 -0.0490  0.1759 -0.4420
  534POSM   C1B 5598   5.865   8.596   2.745  0.1060 -0.1447 -0.0544
  534POSM   D2B 5599   5.850   9.020   2.749 -0.3605 -0.0992 -0.0493
  534POSM   C3B 5600   5.847   9.273   3.108 -0.0958 -0.0427  0.2109
  534POSM   C4B 5601   5.830   9.243   3.607  0.3061  0.2283 -0.2277
  535POPE   NH3 5602   7.164  11.373   2.825 -0.1119 -0.2141  0.2457
  535POPE   PO4 5603   7.352  10.969   2.675  0.1604  0.1646 -0.0210
  535POPE   GL1 5604   7.143  10.887   3.037  0.0392 -0.0602  0.0241
  535POPE   GL2 5605   7.004  11.094   3.146 -0.0764  0.0486 -0.2666
  535POPE   C1A 5606   7.345  10.778   3.356  0.0872  0.2842 -0.1468
  535POPE   D2A 5607   7.506  10.723   3.728  0.2857 -0.1102 -0.3311
  535POPE   C3A 5608   7.456  10.844   4.169 -0.0816  0.1164  0.1764
  535POPE   C4A 5609   7.265  10.831   4.660  0.4796  0.2515  0.1706
  535POPE   C1B 5610   7.129  11.150   3.557 -0.1287 -0.2787  0.2391
  535POPE   C2B 5611   7.252  11.282   3.971 -0.2743 -0.0141  0.0390
  535POPE   C3B 5612   7.524  11.368   4.221  0.2546 -0.1412 -0.1218
  535POPE   C4B 5613   7.571  11.198   4.534 -0.0063  0.0546 -0.0590
  536POPE   NH3 5614   9.645   8.384   2.665 -0.0848 -0.2944 -0.1491
  536POPE   PO4 5615   9.639   7.981   2.571  0.0630  0.2582  0.1053
  536POPE   GL1 5616   9.538   8.082   3.002 -0.0156  0.0193 -0.1603
  536POPE   GL2 5617   9.695   7.983   3.241 -0.0316 -0.2312  0.0873
  536POPE   C1A 5618   9.098   8.225   3.303  0.1848  0.1063  0.0300
  536POPE   D2A 5619   9.057   8.222   3.730 -0.1321  0.0530  0.1424
  536POPE   C3A 5620   8.914   8.417   4.046 -0.0038 -0.2651  0.1827
  536POPE   C4A 5621   8.728   8.472   4.455  0.2119 -0.2435  0.2048
  536POPE   C1B 5622   9.445   7.933   3.450  0.1153  0.0480 -0.0783
  536POPE   C2B 5623   9.516   8.049   3.846 -0.0809 -0.1225  0.1179
  536POPE   C3B 5624   9.284   7.989   4.211 -0.1858 -0.0465  0.1290
  536POPE   C4B 5625   9.247   7.669   4.558 -0.0474 -0.1773  0.1095
  537POSM   NC3 5626   8.682  10.333   1.632  0.2050  0.0380 -0.1937
  537POSM   PO4 5627   8.545  10.124   2.013 -0.1404 -0.1938 -0.0418
  537POSM   AM1 5628   8.441  10.044   2.426 -0.0675 -0.0383 -0.0548
  537POSM   AM2 5629   8.217  10.242   2.563  0.1501 -0.0424 -0.0343
  537POSM   T1A 5630   8.667  10.065   2.836  0.0862  0.0373 -0.0335
  537POSM   C2A 5631   8.605  10.104   3.282 -0.1775  0.4490  0.0384
  537POSM   C3A 5632   8.348  10.197   3.601  0.0564  0.1793  0.2973
  537POSM   C1B 5633   8.034  10.241   3.017 -0.3975  0.3889  0.1844
  537POSM   D2B 5634   7.820  10.164   3.425  0.1289 -0.2689 -0.1565
  537POSM   C3B 5635   7.844  10.355   3.818  0.3721 -0.0954  0.0606
  537POSM   C4B 5636   7.799  10.342   4.181 -0.0881  0.0370  0.0766
  538CHOL   ROH 5637   7.082  10.446   2.811 -0.1316 -0.0429 -0.0445
  538CHOL    R1 5638   7.128  10.273   3.030 -0.1440 -0.0032 -0.0110
  538CHOL    R2 5639   7.334  10.312   3.211 -0.1441  0.0184 -0.0192
  538CHOL    R3 5640   7.133  10.301   3.393 -0.1441  0.0650 -0.0155
  538CHOL    R4 5641   7.377  10.307   3.553 -0.1369  0.0419 -0.0193
  538CHOL    R5 5642   7.217  10.160   3.567 -0.1608  0.0659 -0.0043
  538CHOL    C1 5643   7.213  10.293   3.924 -0.1327  0.0995 -0.0158
  538CHOL    C2 5644   7.273  10.385   4.399 -0.1910 -0.6066 -0.1543
  539CHOL   ROH 5645  10.606   8.148   2.866 -0.1075 -0.1673 -0.0535
  539CHOL    R1 5646  10.522   8.059   3.122  0.0310 -0.1570 -0.0040
  539CHOL    R2 5647  10.696   8.035   3.336  0.0936  0.1161 -0.0250
  539CHOL    R3 5648  10.514   8.195   3.459 -0.0596 -0.0310 -0.0555
  539CHOL    R4 5649  10.637   8.042   3.676  0.0622  0.0924 -0.0295
  539CHOL    R5 5650  10.424   8.059   3.634  0.0458 -0.0990 -0.0502
  539CHOL    C1 5651  10.432   8.195   3.990 -0.1000 -0.0595 -0.0607
  539CHOL    C2 5652  10.477   8.164   4.350  0.1066 -0.0882 -0.2113
  540POSM   NC3 5653   6.754   6.283   2.290  0.0648  0.0222 -0.2517
  540POSM   PO4 5654   6.667   6.096   2.623 -0.1444 -0.2788 -0.0263
  540POSM   AM1 5655   6.460   5.806   2.797 -0.0252  0.0698  0.1724
  540POSM   AM2 5656   6.211   5.972   2.837 -0.0332  0.0087 -0.0710
  540POSM   T1A 5657   6.347   5.586   3.106 -0.1868 -0.0095 -0.0631
  540POSM   C2A 5658   6.485   5.730   3.461  0.2479 -0.1205  0.1105
  540POSM   C3A 5659   6.432   5.677   3.830 -0.1777  0.1902 -0.2676
  540POSM   C1B 5660   6.163   6.111   3.198  0.2121  0.0913  0.1496
  540POSM   D2B 5661   6.119   6.272   3.644  0.3968  0.1358 -0.1184
  540POSM   C3B 5662   6.399   6.146   4.034  0.0336  0.3211  0.0643
  540POSM   C4B 5663   6.604   5.816   4.251 -0.0705 -0.3533 -0.1633
  541POPC   NC3 5664  10.438   8.439   2.362  0.0052  0.3425 -0.2091
  541POPC   PO4 5665  10.097   8.556   2.576 -0.0637  0.1396  0.0443
  541POPC   GL1 5666  10.022   8.722   3.034  0.0244 -0.3170  0.0811
  541POPC   GL2 5667  10.237   9.046   2.998  0.3088  0.2781  0.0224
  541POPC   C1A 5668   9.908   8.831   3.369  0.2702 -0.1995 -0.1038
  541POPC   D2A 5669   9.562   8.864   3.696  0.0849  0.0047 -0.1235
  541POPC   C3A 5670   9.662   9.017   4.017  0.0899  0.0816 -0.0855
  541POPC   C4A 5671   9.814   9.217   4.345 -0.2278  0.0663 -0.2610
  541POPC   C1B 5672  10.307   9.362   3.235 -0.0731  0.0097  0.0565
  541POPC   C2B 5673  10.146   9.564   3.588  0.4806  0.2325 -0.0122
  541POPC   C3B 5674   9.813   9.834   3.749  0.0216 -0.0019 -0.2001
  541POPC   C4B 5675   9.638  10.018   4.070 -0.3811  0.1620  0.0732
  542POPC   NC3 5676   5.410   9.006   2.562  0.1292  0.3466  0.3472
  542POPC   PO4 5677   5.198   9.353   2.820  0.2340 -0.2208 -0.0068
  542POPC   GL1 5678   5.395   9.410   3.158  0.0074  0.4501  0.1299
  542POPC   GL2 5679   5.102   9.494   3.381  0.0638 -0.2064 -0.0276
  542POPC   C1A 5680   5.353   9.256   3.671  0.0749 -0.2419 -0.2827
  542POPC   D2A 5681   5.339   9.203   4.037  0.3262  0.2229  0.3190
  542POPC   C3A 5682   5.639   9.041   4.262 -0.0555 -0.1381  0.2294
  542POPC   C4A 5683   6.042   8.997   4.237  0.1001  0.0803 -0.0246
  542POPC   C1B 5684   5.084   9.625   3.829 -0.0563 -0.0926 -0.0131
  542POPC   C2B 5685   5.143   9.639   4.226 -0.0827 -0.1284 -0.2157
  542POPC   C3B 5686   5.406   9.815   4.603 -0.0396 -0.0309  0.2281
  542POPC   C4B 5687   5.324  10.138   4.833  0.1139  0.0455 -0.1258
  543CHOL   ROH 5688   8.713   5.508   2.929 -0.0720  0.2852 -0.0951
  543CHOL    R1 5689   8.714   5.428   3.200 -0.0095  0.2333 -0.1096
  543CHOL    R2 5690   8.889   5.238   3.299 -0.1289  0.0584 -0.2342
  543CHOL    R3 5691   8.951   5.433   3.477  0.1351 -0.0282 -0.2248
  543CHOL    R4 5692   9.055   5.188   3.598 -0.1250 -0.1657 -0.2713
  543CHOL    R5 5693   8.920   5.331   3.691  0.0574 -0.0161 -0.2271
  543CHOL    C1 5694   9.209   5.343   3.939  0.1251 -0.3774 -0.2841
  543CHOL    C2 5695   9.268   5.358   4.210  0.2998 -0.1081 -0.0766
  544CHOL   ROH 5696   5.215   9.909   3.080 -0.0382  0.0175 -0.0277
  544CHOL    R1 5697   5.426   9.903   3.269 -0.0500  0.0435 -0.0128
  544CHOL    R2 5698   5.383   9.933   3.541 -0.0843 -0.0651 -0.0031
  544CHOL    R3 5699   5.520   9.698   3.555  0.0123 -0.0135 -0.0749
  544CHOL    R4 5700   5.549   9.818   3.821 -0.0052 -0.0707 -0.0523
  544CHOL    R5 5701   5.710   9.748   3.692  0.0067  0.0265 -0.0852
  544CHOL    C1 5702   5.773   9.530   3.998  0.1314 -0.0255 -0.1484
  544CHOL    C2 5703   5.851   9.498   4.274  0.0349  0.0088 -0.4243
  545POPC   NC3 5704  11.027   6.581   2.524  0.1085  0.1442  0.0807
  545POPC   PO4 5705  11.062   7.015   2.587 -0.2974  0.1095  0.1705
  545POPC   GL1 5706  10.997   7.133   2.907  0.2980  0.0183  0.0680
  545POPC   GL2 5707  11.159   7.313   3.112  0.0595  0.0049  0.1767
  545POPC   C1A 5708  10.624   7.344   3.171 -0.0265 -0.0439 -0.0572
  545POPC   D2A 5709  10.573   7.552   3.516  0.4718  0.0517  0.2406
  545POPC   C3A 5710  10.530   7.257   3.754  0.0217 -0.2312 -0.0429
  545POPC   C4A 5711  10.590   7.248   4.205 -0.2162  0.1559 -0.0509
  545POPC   C1B 5712  11.010   7.624   3.452 -0.1439  0.0807 -0.0143
  545POPC   C2B 5713  11.030   7.455   3.828 -0.0752 -0.1351  0.0373
  545POPC   C3B 5714  11.140   7.563   4.264 -0.1550  0.1862  0.1193
  545POPC   C4B 5715  10.945   7.941   4.425  0.3280  0.1703  0.0868
  546POSM   NC3 5716   5.075   7.981   2.261 -0.0271  0.1941 -0.3575
  546POSM   PO4 5717   4.772   8.176   2.387 -0.2542  0.1704  0.2643
  546POSM   AM1 5718   4.823   8.318   2.843 -0.1804 -0.2818 -0.1571
  546POSM   AM2 5719   4.577   8.449   2.986 -0.0346  0.0577  0.3022
  546POSM   T1A 5720   5.136   8.478   3.078 -0.2527  0.2256  0.0690
  546POSM   C2A 5721   5.513   8.466   3.083 -0.1059  0.1456  0.0322
  546POSM   C3A 5722   5.916   8.298   3.162 -0.0455  0.0742 -0.0427
  546POSM   C1B 5723   4.805   8.138   3.281 -0.0689 -0.0769  0.0954
  546POSM   D2B 5724   4.921   7.798   3.538  0.1721  0.0398  0.1563
  546POSM   C3B 5725   5.001   7.742   3.976 -0.1424 -0.1552 -0.1909
  546POSM   C4B 5726   4.842   7.872   4.384  0.0700 -0.1760  0.0883
  547POPC   NC3 5727   8.250  10.907   2.069 -0.4583 -0.1554  0.4716
  547POPC   PO4 5728   8.678  10.642   2.084  0.3739 -0.1293  0.1515
  547POPC   GL1 5729   8.621  10.507   2.465  0.1517 -0.2019  0.2427
  547POPC   GL2 5730   8.910  10.623   2.698  0.1131  0.0118  0.4009
  547POPC   C1A 5731   8.463  10.503   2.894  0.2523  0.0729 -0.2594
  547POPC   D2A 5732   8.355  10.719   3.198  0.0556 -0.0910 -0.2063
  547POPC   C3A 5733   8.629  10.600   3.485  0.0383 -0.1639 -0.1715
  547POPC   C4A 5734   8.668  10.713   3.882  0.2499  0.2534  0.2922
  547POPC   C1B 5735   8.888  10.765   3.105  0.0299  0.0367  0.0371
  547POPC   C2B 5736   9.006  10.913   3.512  0.3743  0.2022  0.3205
  547POPC   C3B 5737   9.180  10.849   4.015  0.0664 -0.3508 -0.0872
  547POPC   C4B 5738   9.047  10.785   4.435 -0.3209  0.1059 -0.4107
  548POPE   NH3 5739   5.599   6.463   2.057 -0.1373 -0.0163 -0.2709
  548POPE   PO4 5740   5.425   6.804   2.135  0.1842 -0.0982 -0.0335
  548POPE   GL1 5741   5.541   6.776   2.484 -0.0310  0.0457  0.0106
  548POPE   GL2 5742   5.824   6.724   2.757 -0.0094 -0.0865  0.0308
  548POPE   C1A 5743   5.375   6.884   2.943 -0.4465 -0.1667  0.1492
  548POPE   D2A 5744   5.617   6.987   3.341  0.1793 -0.1894  0.0810
  548POPE   C3A 5745   5.573   6.807   3.838 -0.2258  0.1590 -0.0617
  548POPE   C4A 5746   5.767   6.633   4.343  0.0415  0.0181 -0.2112
  548POPE   C1B 5747   5.948   6.651   3.251  0.0278 -0.3228 -0.0099
  548POPE   C2B 5748   5.996   6.908   3.672  0.0353  0.1078  0.2316
  548POPE   C3B 5749   5.988   7.065   4.125  0.1422 -0.0998 -0.0647
  548POPE   C4B 5750   5.796   7.226   4.486  0.1250 -0.1130 -0.2469
  549POPE   NH3 5751   9.773   6.734   2.438 -0.2328 -0.0435 -0.2711
  549POPE   PO4 5752  10.101   6.421   2.283 -0.3941 -0.1878 -0.1836
  549POPE   GL1 5753  10.096   6.286   2.691 -0.3802  0.2748  0.1692
  549POPE   GL2 5754  10.390   6.402   2.833 -0.0279 -0.0442 -0.0455
  549POPE   C1A 5755   9.940   6.320   3.111 -0.1889  0.2037 -0.3961
  549POPE   D2A 5756   9.786   6.322   3.583 -0.2254 -0.0638 -0.0722
  549POPE   C3A 5757   9.910   6.637   3.867  0.0216 -0.1535 -0.1055
  549POPE   C4A 5758  10.210   6.786   4.137  0.0963 -0.2667 -0.0379
  549POPE   C1B 5759  10.348   6.433   3.285  0.0900 -0.0038 -0.3013
  549POPE   C2B 5760  10.393   6.580   3.687 -0.1524  0.0202 -0.2326
  549POPE   C3B 5761  10.689   6.820   3.994 -0.0789  0.4395 -0.0843
  549POPE   C4B 5762  11.050   6.949   3.949  0.3107  0.0125 -0.0281
  550CHOL   ROH 5763   4.409   6.533   3.154  0.3445 -0.1805 -0.1484
  550CHOL    R1 5764   4.571   6.487   3.382  0.2597  0.0445 -0.0365
  550CHOL    R2 5765   4.635   6.686   3.562  0.0598  0.1964 -0.1109
  550CHOL    R3 5766   4.532   6.511   3.743  0.0571  0.2402 -0.0729
  550CHOL    R4 5767   4.756   6.638   3.883  0.3570 -0.1124 -0.2643
  550CHOL    R5 5768   4.724   6.424   3.858  0.0715 -0.0509 -0.3258
  550CHOL    C1 5769   4.730   6.446   4.238  0.5275 -0.2512 -0.3179
  550CHOL    C2 5770   5.064   6.494   4.475  0.2293 -0.0979  0.4040
  551POSM   NC3 5771   9.917   7.591   2.429 -0.0070  0.3343 -0.0469
  551POSM   PO4 5772  10.060   7.207   2.353 -0.4654  0.1062  0.2396
  551POSM   AM1 5773  10.226   6.827   2.536 -0.2788  0.2970  0.1527
  551POSM   AM2 5774  10.582   6.809   2.527  0.0680  0.5028 -0.0238
  551POSM   T1A 5775  10.023   6.765   2.915  0.0478 -0.1253 -0.1775
  551POSM   C2A 5776   9.837   6.782   3.350 -0.2623  0.0672  0.1235
  551POSM   C3A 5777   9.465   6.664   3.574  0.3035 -0.1745  0.3194
  551POSM   C1B 5778  10.522   6.876   2.978  0.0837  0.1779  0.1107
  551POSM   D2B 5779  10.664   6.885   3.363  0.0120  0.1047 -0.3010
  551POSM   C3B 5780  10.961   7.031   3.471  0.0833 -0.3057  0.0920
  551POSM   C4B 5781  11.383   7.217   3.548  0.0176  0.1456  0.1169
  552POSM   NC3 5782   7.947   4.899   2.635  0.1669  0.1072  0.2510
  552POSM   PO4 5783   7.511   4.997   2.596  0.1746 -0.0399 -0.2701
  552POSM   AM1 5784   7.258   5.031   2.804 -0.2296 -0.1611  0.3470
  552POSM   AM2 5785   7.253   5.387   2.882 -0.3044  0.1124  0.1136
  552POSM   T1A 5786   7.312   5.117   3.247 -0.1586 -0.1874  0.0585
  552POSM   C2A 5787   7.308   5.314   3.771 -0.2281  0.3536 -0.1104
  552POSM   C3A 5788   7.517   5.142   4.012 -0.2164 -0.3058 -0.1321
  552POSM   C1B 5789   7.375   5.700   3.225  0.0314  0.2144  0.1643
  552POSM   D2B 5790   7.332   6.189   3.231 -0.2057  0.1413  0.0795
  552POSM   C3B 5791   7.101   6.464   3.516 -0.1521  0.2173 -0.0523
  552POSM   C4B 5792   7.093   6.837   3.573 -0.3188 -0.1540 -0.1345
  553POPE   NH3 5793   5.299   6.091   2.462  0.2299 -0.0625  0.0633
  553POPE   PO4 5794   5.583   5.675   2.648  0.0817 -0.2701 -0.2027
  553POPE   GL1 5795   5.703   5.687   3.070 -0.1115 -0.3188 -0.2353
  553POPE   GL2 5796   5.875   5.413   3.210  0.0760  0.0146  0.1260
  553POPE   C1A 5797   5.899   5.779   3.518 -0.1942 -0.0268 -0.0282
  553POPE   D2A 5798   5.907   5.563   3.778  0.2135 -0.1404 -0.3396
  553POPE   C3A 5799   6.101   5.667   4.211  0.2514  0.3046 -0.1548
  553POPE   C4A 5800   6.253   5.830   4.672  0.2478  0.1765  0.1144
  553POPE   C1B 5801   5.647   5.271   3.446  0.2236  0.1316 -0.0595
  553POPE   C2B 5802   5.395   5.276   3.851 -0.2649  0.0847  0.1240
  553POPE   C3B 5803   5.101   5.506   4.177  0.2431  0.0331  0.1078
  553POPE   C4B 5804   5.060   5.703   4.550 -0.1112 -0.1433  0.0918
  554POSM   NC3 5805   7.741  10.878   2.338  0.1843 -0.0826 -0.0556
  554POSM   PO4 5806   7.817  10.459   2.360 -0.0433  0.0533 -0.0196
  554POSM   AM1 5807   7.572  10.344   2.720  0.2055  0.1083 -0.1085
  554POSM   AM2 5808   7.656  10.537   2.967  0.1304 -0.1762 -0.0246
  554POSM   T1A 5809   7.576   9.910   3.006 -0.1080 -0.0726  0.0678
  554POSM   C2A 5810   7.524   9.778   3.422  0.1897 -0.0854 -0.1349
  554POSM   C3A 5811   7.578   9.937   3.815 -0.1225  0.1280 -0.0079
  554POSM   C1B 5812   7.867  10.692   3.358  0.1742  0.0784  0.1591
  554POSM   D2B 5813   8.131  10.778   3.707  0.2025 -0.0057 -0.2280
  554POSM   C3B 5814   8.233  10.588   4.035 -0.2192 -0.2337 -0.2211
  554POSM   C4B 5815   8.284  10.162   4.119  0.1822  0.3050 -0.3390
  555POPC   NC3 5816  10.421   5.225   2.234 -0.0935 -0.0903 -0.1877
  555POPC   PO4 5817  10.645   5.567   2.332 -0.1080  0.0498  0.1300
  555POPC   GL1 5818  10.593   5.321   2.675  0.1536  0.2981 -0.1894
  555POPC   GL2 5819  10.863   5.074   2.687  0.2942  0.0678  0.4300
  555POPC   C1A 5820  10.245   5.307   3.022 -0.1067 -0.1001  0.1245
  555POPC   D2A 5821  10.078   5.493   3.340  0.2389  0.1041 -0.0660
  555POPC   C3A 5822  10.118   5.563   3.836 -0.0334 -0.2688  0.2925
  555POPC   C4A 5823  10.375   5.472   4.190  0.0601  0.1757 -0.0018
  555POPC   C1B 5824  10.656   4.975   3.055 -0.0956 -0.0424 -0.0032
  555POPC   C2B 5825  10.298   4.788   3.163  0.0174 -0.1146  0.3749
  555POPC   C3B 5826  10.086   4.989   3.566 -0.0324 -0.0766  0.0254
  555POPC   C4B 5827  10.194   5.062   3.866  0.3718 -0.2811  0.0170
  556POPE   NH3 5828   6.268  11.299   2.583 -0.2350  0.0097  0.0186
  556POPE   PO4 5829   6.694  11.314   2.759  0.1603 -0.1603 -0.2470
  556POPE   GL1 5830   6.834  11.530   3.177  0.0989 -0.2395  0.0348
  556POPE   GL2 5831   7.177  11.588   3.340 -0.1016  0.0444 -0.1220
  556POPE   C1A 5832   6.806  11.544   3.630 -0.0973 -0.0709  0.0329
  556POPE   D2A 5833   6.737  11.557   4.073 -0.1347  0.0130  0.0008
  556POPE   C3A 5834   6.449  11.376   4.324  0.0139  0.3123  0.3286
  556POPE   C4A 5835   6.474  10.893   4.414  0.2055  0.1553 -0.2496
  556POPE   C1B 5836   7.508  11.590   3.584 -0.1884 -0.0007  0.4336
  556POPE   C2B 5837   7.604  11.970   3.774 -0.2081 -0.0291  0.1380
  556POPE   C3B 5838   7.627  11.921   4.270  0.1122 -0.1523  0.2507
  556POPE   C4B 5839   7.512  11.648   4.713  0.2658  0.0866 -0.0131
  557POPC   NC3 5840   6.843   5.357   2.567  0.2149 -0.1600 -0.0098
  557POPC   PO4 5841   6.745   5.000   2.704  0.3835  0.0831 -0.0682
  557POPC   GL1 5842   6.820   5.182   3.016 -0.3035  0.2470  0.0191
  557POPC   GL2 5843   6.873   5.486   3.155 -0.3317  0.1413  0.0930
  557POPC   C1A 5844   6.825   5.144   3.450  0.4204  0.0874  0.2774
  557POPC   D2A 5845   6.814   5.393   3.767  0.1598  0.0183 -0.1119
  557POPC   C3A 5846   6.982   5.722   3.999 -0.1247  0.1146 -0.1483
  557POPC   C4A 5847   7.066   5.940   4.370  0.0770 -0.1739 -0.0046
  557POPC   C1B 5848   6.963   5.706   3.466  0.3125 -0.2488  0.2703
  557POPC   C2B 5849   7.281   6.004   3.717 -0.2084 -0.0827  0.0797
  557POPC   C3B 5850   7.452   6.178   4.121  0.2018  0.1793 -0.2708
  557POPC   C4B 5851   7.091   6.517   4.393  0.1892  0.2240  0.1901
  558POSM   NC3 5852   7.828   5.668   1.653 -0.1546  0.1207 -0.1793
  558POSM   PO4 5853   7.778   5.608   2.138 -0.1238  0.0497  0.2465
  558POSM   AM1 5854   7.747   5.504   2.568  0.2299  0.0094 -0.1105
  558POSM   AM2 5855   7.572   5.719   2.702 -0.1518  0.2257  0.0066
  558POSM   T1A 5856   7.747   5.372   2.998 -0.0506  0.0715  0.2076
  558POSM   C2A 5857   7.824   5.260   3.355  0.0936  0.0047  0.1016
  558POSM   C3A 5858   7.935   5.119   3.749 -0.1738 -0.0809 -0.0943
  558POSM   C1B 5859   7.786   5.858   3.125  0.0776 -0.2335 -0.3322
  558POSM   D2B 5860   7.863   6.028   3.528 -0.0290 -0.1629  0.3117
  558POSM   C3B 5861   7.906   5.958   3.988 -0.1268 -0.2002  0.1428
  558POSM   C4B 5862   7.981   5.821   4.440 -0.2056 -0.0844  0.0342
  559POPE   NH3 5863   4.648   6.519   2.715  0.3150 -0.2237  0.1518
  559POPE   PO4 5864   4.784   6.973   2.573 -0.1466  0.2045  0.1847
  559POPE   GL1 5865   4.874   7.147   2.945 -0.0591  0.1583  0.1561
  559POPE   GL2 5866   4.615   6.980   3.134 -0.0158 -0.0210 -0.1205
  559POPE   C1A 5867   5.098   7.242   3.267  0.1233 -0.1399  0.0454
  559POPE   D2A 5868   5.201   7.380   3.713  0.3501 -0.2687 -0.0024
  559POPE   C3A 5869   5.413   7.724   3.657  0.1611  0.2438 -0.2689
  559POPE   C4A 5870   5.716   8.082   3.546 -0.0660  0.1601  0.1660
  559POPE   C1B 5871   4.699   7.169   3.544  0.1721  0.3156 -0.1775
  559POPE   C2B 5872   4.833   7.236   3.969  0.0110  0.0084  0.1265
  559POPE   C3B 5873   4.727   7.003   4.371 -0.2444 -0.2800  0.0985
  559POPE   C4B 5874   4.822   7.145   4.758 -0.2853  0.0075 -0.1819
  560POPE   NH3 5875  11.664   7.184   2.763  0.2692 -0.0942 -0.0012
  560POPE   PO4 5876  11.685   7.476   3.015 -0.0356 -0.2904  0.0976
  560POPE   GL1 5877  11.883   7.440   3.265 -0.1006 -0.1248  0.0136
  560POPE   GL2 5878  11.816   7.062   3.252  0.1465 -0.0729  0.1289
  560POPE   C1A 5879  11.995   7.411   3.663 -0.0488  0.1182 -0.1935
  560POPE   D2A 5880  11.953   7.268   4.095  0.2806  0.0494  0.0216
  560POPE   C3A 5881  12.046   6.852   4.204 -0.1065 -0.4450  0.4319
  560POPE   C4A 5882  12.311   6.447   4.216  0.0687 -0.0507  0.0088
  560POPE   C1B 5883  11.790   6.966   3.736 -0.1733 -0.1759 -0.1540
  560POPE   C2B 5884  11.550   6.989   4.048  0.0855  0.2694 -0.0040
  560POPE   C3B 5885  11.230   6.936   4.399  0.1143 -0.0494  0.2876
  560POPE   C4B 5886  10.856   6.797   4.430  0.2347  0.0223  0.0812
  561POPS   CNO 5887   9.844   9.018   2.596 -0.2459  0.1020 -0.2936
  561POPS   PO4 5888  10.127   9.350   2.364  0.1188 -0.1015  0.1764
  561POPS   GL1 5889  10.137   9.447   2.746  0.2226  0.0557 -0.1431
  561POPS   GL2 5890  10.082   9.747   2.735  0.1115 -0.1451  0.0477
  561POPS   C1A 5891   9.829   9.351   3.194  0.0554 -0.0779  0.0723
  561POPS   D2A 5892   9.751   9.272   3.586 -0.2558 -0.1555  0.1187
  561POPS   C3A 5893  10.084   9.092   3.814 -0.2078 -0.0795  0.0066
  561POPS   C4A 5894  10.456   9.219   3.899  0.1867  0.1986 -0.2960
  561POPS   C1B 5895  10.049   9.807   3.207  0.0702  0.1481 -0.0954
  561POPS   C2B 5896  10.029  10.134   3.437 -0.1437  0.2851  0.1575
  561POPS   C3B 5897  10.052  10.335   3.923  0.0532 -0.3081 -0.3023
  561POPS   C4B 5898  10.279  10.440   4.341  0.2393 -0.0671 -0.1335
  562CHOL   ROH 5899   9.105  10.229   2.968 -0.1163  0.1258 -0.0152
  562CHOL    R1 5900   9.165  10.189   3.241 -0.0106  0.1997 -0.0277
  562CHOL    R2 5901   9.139  10.389   3.430 -0.1028  0.2027 -0.0429
  562CHOL    R3 5902   8.986  10.204   3.558  0.0656  0.1040  0.0209
  562CHOL    R4 5903   9.020  10.421   3.753 -0.0716  0.1686 -0.0277
  562CHOL    R5 5904   9.063  10.210   3.785  0.1022  0.2085  0.0061
  562CHOL    C1 5905   8.806  10.267   4.060  0.1046  0.0563  0.0411
  562CHOL    C2 5906   8.625  10.540   4.343 -0.1798  0.2497  0.2268
  563POPS   CNO 5907  11.087   9.201   2.447 -0.1062 -0.2589 -0.0607
  563POPS   PO4 5908  10.825   8.941   2.266 -0.0042  0.1218 -0.1871
  563POPS   GL1 5909  10.788   8.910   2.792  0.1473 -0.1089  0.2405
  563POPS   GL2 5910  10.583   8.607   2.879  0.2744 -0.1758  0.0763
  563POPS   C1A 5911  10.749   9.001   3.162  0.1477  0.3202  0.1222
  563POPS   D2A 5912  10.763   9.202   3.449 -0.0015  0.2185  0.1477
  563POPS   C3A 5913  10.931   8.987   3.762 -0.1875 -0.1118 -0.0185
  563POPS   C4A 5914  10.933   9.010   4.040 -0.1854  0.2688 -0.0845
  563POPS   C1B 5915  10.403   8.640   3.279 -0.2807 -0.1534 -0.1305
  563POPS   C2B 5916  10.467   8.779   3.680 -0.1998 -0.0570 -0.1423
  563POPS   C3B 5917  10.433   8.738   4.058  0.0792  0.3329  0.2432
  563POPS   C4B 5918  10.298   9.056   4.371  0.0721  0.5024 -0.0149
  564CHOL   ROH 5919   6.109  10.426   3.076  0.0156 -0.2816 -0.0460
  564CHOL    R1 5920   6.266  10.537   3.283 -0.1967  0.0516 -0.0580
  564CHOL    R2 5921   6.161  10.606   3.529 -0.3070 -0.2903  0.0063
  564CHOL    R3 5922   6.360  10.446   3.622  0.1333  0.1635 -0.1156
  564CHOL    R4 5923   6.310  10.636   3.840 -0.3975 -0.1476  0.0355
  564CHOL    R5 5924   6.502  10.594   3.746 -0.2684  0.4496  0.0079
  564CHOL    C1 5925   6.583  10.503   4.108 -0.0368  0.3614 -0.0620
  564CHOL    C2 5926   6.534  10.236   4.353 -0.0778  0.0659  0.1121
  565CHOL   ROH 5927   5.115  10.488   3.258  0.1460 -0.1321  0.2092
  565CHOL    R1 5928   5.232  10.558   3.506  0.0011  0.1034  0.2139
  565CHOL    R2 5929   5.155  10.782   3.649 -0.3373  0.0479  0.1288
  565CHOL    R3 5930   5.120  10.601   3.849 -0.1357  0.0528  0.1784
  565CHOL    R4 5931   5.140  10.859   3.986 -0.1195  0.0789  0.1333
  565CHOL    R5 5932   5.258  10.681   4.027 -0.0284  0.1172  0.0703
  565CHOL    C1 5933   5.097  10.735   4.369  0.1965  0.1016  0.1825
  565CHOL    C2 5934   5.120  11.037   4.572 -0.3756  0.4843  0.0765
  566POPC   NC3 5935   9.534  10.475   2.131 -0.1707 -0.2737  0.0198
  566POPC   PO4 5936   9.871  10.227   2.394 -0.2672 -0.2134  0.0451
  566POPC   GL1 5937   9.877  10.247   2.779  0.3483  0.2375  0.0966
  566POPC   GL2 5938  10.165  10.361   2.941  0.2172 -0.0871  0.2330
  566POPC   C1A 5939   9.633  10.005   3.072 -0.0457 -0.0497 -0.0127
  566POPC   D2A 5940   9.445   9.646   3.285 -0.1015  0.2189  0.0309
  566POPC   C3A 5941   9.276   9.789   3.729 -0.0132  0.0360 -0.2393
  566POPC   C4A 5942   9.083   9.873   4.166  0.3171 -0.2204 -0.0004
  566POPC   C1B 5943  10.338  10.567   3.252 -0.0185  0.1221 -0.1539
  566POPC   C2B 5944  10.409  10.650   3.646  0.2129  0.0498 -0.2292
  566POPC   C3B 5945  10.546  10.330   3.918 -0.3110 -0.1099 -0.0061
  566POPC   C4B 5946  10.559  10.103   4.287 -0.0256 -0.1299  0.4130
  567POPE   NH3 5947   4.424   9.014   2.877  0.1252  0.1776 -0.0907
  567POPE   PO4 5948   4.892   8.882   2.705  0.2126 -0.0159 -0.0692
  567POPE   GL1 5949   4.892   9.078   3.143 -0.2764 -0.1089 -0.1131
  567POPE   GL2 5950   4.734   8.869   3.253 -0.0601  0.0289 -0.0596
  567POPE   C1A 5951   4.901   9.007   3.677  0.0996  0.0336 -0.2464
  567POPE   D2A 5952   5.006   8.763   4.053 -0.0151  0.3026  0.0443
  567POPE   C3A 5953   5.100   8.999   4.450  0.2411  0.1287 -0.1270
  567POPE   C4A 5954   5.399   9.308   4.729 -0.0120 -0.1224  0.0465
  567POPE   C1B 5955   4.809   8.513   3.598 -0.0009  0.1418  0.0109
  567POPE   C2B 5956   4.777   8.219   3.923 -0.3267  0.0407 -0.1491
  567POPE   C3B 5957   4.950   8.361   4.332  0.1338  0.1003 -0.0831
  567POPE   C4B 5958   5.075   8.570   4.689  0.0879  0.0148 -0.0852
  568POPE   NH3 5959   6.039   5.637   2.509 -0.0448 -0.0085 -0.1255
  568POPE   PO4 5960   6.355   5.310   2.642  0.0643  0.0257  0.1838
  568POPE   GL1 5961   6.279   5.087   3.042  0.1563 -0.1205 -0.1326
  568POPE   GL2 5962   6.364   4.835   3.027 -0.2306  0.2556  0.0839
  568POPE   C1A 5963   6.287   5.263   3.490 -0.1991 -0.1754 -0.1097
  568POPE   D2A 5964   6.302   5.189   3.985 -0.0476 -0.3748 -0.0124
  568POPE   C3A 5965   6.666   4.986   4.131 -0.0265 -0.0154  0.0618
  568POPE   C4A 5966   6.806   4.827   4.550 -0.0024 -0.1539 -0.4310
  568POPE   C1B 5967   6.496   4.754   3.351  0.0842  0.1548 -0.0170
  568POPE   C2B 5968   6.510   4.721   3.727  0.3115  0.0869 -0.0276
  568POPE   C3B 5969   6.388   4.614   4.086 -0.3955 -0.4271 -0.1714
  568POPE   C4B 5970   6.213   4.369   4.381 -0.0082 -0.0235  0.0924
  569POSM   NC3 5971   5.812  10.635   2.636 -0.0758 -0.2204 -0.1696
  569POSM   PO4 5972   5.787  10.238   2.726  0.1745 -0.2193 -0.1955
  569POSM   AM1 5973   5.608  10.395   3.140  0.0566  0.2511  0.0342
  569POSM   AM2 5974   5.634  10.733   3.067 -0.1251  0.1654  0.0646
  569POSM   T1A 5975   5.701  10.335   3.485  0.2312  0.0614  0.1395
  569POSM   C2A 5976   5.546  10.299   3.842  0.1194 -0.2660 -0.3195
  569POSM   C3A 5977   5.741  10.076   4.277  0.1838 -0.1413 -0.1444
  569POSM   C1B 5978   5.654  10.799   3.458  0.1392 -0.0876  0.0195
  569POSM   D2B 5979   5.689  10.831   3.889 -0.2341  0.4406  0.0849
  569POSM   C3B 5980   5.949  10.462   4.047  0.0478  0.2621 -0.1388
  569POSM   C4B 5981   6.092  10.389   4.405 -0.1414 -0.2185 -0.1885
  570POPC   NC3 5982   8.630   5.284   2.475 -0.1267  0.1517  0.1438
  570POPC   PO4 5983   8.981   5.097   2.643  0.2614 -0.1439 -0.2041
  570POPC   GL1 5984   9.260   5.194   2.860 -0.0061 -0.1131 -0.0598
  570POPC   GL2 5985   9.272   4.879   2.978  0.0063  0.1628  0.0676
  570POPC   C1A 5986   9.464   5.243   3.306  0.2061  0.1815 -0.0220
  570POPC   D2A 5987   9.717   5.362   3.615 -0.3225 -0.1607 -0.3165
  570POPC   C3A 5988   9.762   5.273   4.053 -0.1722  0.2848 -0.3948
  570POPC   C4A 5989  10.014   4.956   4.383 -0.0961  0.2863  0.0333
  570POPC   C1B 5990   9.503   4.717   3.390  0.5014 -0.1855  0.2136
  570POPC   C2B 5991   9.403   4.867   3.831  0.0777  0.2357 -0.2293
  570POPC   C3B 5992   9.458   4.906   4.231  0.1489 -0.0957 -0.0011
  570POPC   C4B 5993   9.641   4.680   4.630  0.2988  0.1895 -0.2700
  571POPE   NH3 5994   4.636   5.578   2.454 -0.2948  0.1750 -0.2384
  571POPE   PO4 5995   4.787   6.114   2.419 -0.0289  0.0191  0.1608
  571POPE   GL1 5996   4.676   6.031   2.759  0.4692 -0.1398 -0.2469
  571POPE   GL2 5997   4.460   5.866   2.879  0.2279  0.1343  0.2746
  571POPE   C1A 5998   4.895   6.100   3.091 -0.3926  0.1026 -0.3680
  571POPE   D2A 5999   4.927   6.199   3.476  0.0067 -0.0667 -0.1620
  571POPE   C3A 6000   5.169   6.366   3.734 -0.1275  0.3401  0.1893
  571POPE   C4A 6001   5.391   6.378   4.101 -0.1874 -0.0040  0.0258
  571POPE   C1B 6002   4.663   5.682   3.201 -0.2079  0.3572 -0.0939
  571POPE   C2B 6003   4.708   5.702   3.517 -0.0294 -0.2056  0.0086
  571POPE   C3B 6004   4.732   5.855   3.927  0.3281  0.0168 -0.1041
  571POPE   C4B 6005   5.036   6.090   4.130  0.1376  0.2389 -0.1871
  572POPC   NC3 6006  11.452   8.393   2.797 -0.1331  0.3138  0.2445
  572POPC   PO4 6007  11.638   7.946   2.730  0.2363 -0.2030 -0.0601
  572POPC   GL1 6008  11.805   8.037   3.104  0.0255  0.2049  0.1931
  572POPC   GL2 6009  11.582   8.194   3.318  0.0396  0.0206 -0.1411
  572POPC   C1A 6010  11.990   7.905   3.535  0.3554  0.2937  0.1298
  572POPC   D2A 6011  11.901   7.786   4.067 -0.0279  0.0851  0.1232
  572POPC   C3A 6012  12.019   8.032   4.399 -0.4173 -0.0609  0.1571
  572POPC   C4A 6013  11.898   8.282   4.829 -0.3719  0.3085  0.1681
  572POPC   C1B 6014  11.514   7.723   3.599 -0.1633  0.2338  0.0128
  572POPC   C2B 6015  11.492   7.490   3.968 -0.0130  0.0450  0.0033
  572POPC   C3B 6016  11.680   7.417   4.430  0.4163  0.0997 -0.0167
  572POPC   C4B 6017  11.462   7.337   4.823 -0.1116 -0.0825  0.1549
  573POPC   NC3 6018   5.197   7.160   2.459 -0.2847  0.2500 -0.2463
  573POPC   PO4 6019   4.925   7.530   2.485 -0.0197  0.1474  0.0398
  573POPC   GL1 6020   5.176   7.579   2.875  0.0186  0.1598 -0.3556
  573POPC   GL2 6021   5.093   7.688   3.062  0.2021 -0.0277 -0.4693
  573POPC   C1A 6022   5.519   7.467   3.277 -0.0992  0.1596 -0.0603
  573POPC   D2A 6023   5.651   7.311   3.728 -0.0129 -0.0140  0.1115
  573POPC   C3A 6024   5.400   7.233   4.151  0.0241  0.1696  0.0422
  573POPC   C4A 6025   5.087   7.401   4.403 -0.0269 -0.1671 -0.1361
  573POPC   C1B 6026   5.320   7.954   3.217 -0.0998 -0.0873 -0.0832
  573POPC   C2B 6027   5.282   8.270   3.538  0.0485 -0.0641 -0.0180
  573POPC   C3B 6028   5.334   8.187   3.955 -0.2721 -0.1099 -0.2225
  573POPC   C4B 6029   5.343   8.085   4.335  0.1109  0.1916  0.0841
  574CHOL   ROH 6030   5.343   5.990   2.954 -0.0613  0.0415  0.0700
  574CHOL    R1 6031   5.343   5.976   3.237  0.1191  0.1388  0.0778
  574CHOL    R2 6032   5.167   5.815   3.377 -0.0329  0.4466  0.2592
  574CHOL    R3 6033   5.396   5.719   3.489 -0.0907  0.1369  0.1194
  574CHOL    R4 6034   5.238   5.818   3.715  0.1405  0.2422  0.2259
  574CHOL    R5 6035   5.444   5.871   3.667  0.1798  0.0158  0.1481
  574CHOL    C1 6036   5.494   5.728   4.017  0.1872 -0.1675  0.0753
  574CHOL    C2 6037   5.524   5.941   4.324 -0.1800 -0.2571  0.0147
  575CHOL   ROH 6038  10.969   6.603   3.008 -0.4011  0.0646 -0.1767
  575CHOL    R1 6039  10.886   6.451   3.232 -0.1565  0.0054 -0.1240
  575CHOL    R2 6040  11.061   6.363   3.427  0.0022  0.2697 -0.1460
  575CHOL    R3 6041  10.888   6.489   3.594 -0.1199  0.0874 -0.1315
  575CHOL    R4 6042  11.007   6.276   3.757  0.1477  0.2323 -0.1307
  575CHOL    R5 6043  10.794   6.313   3.726  0.0983 -0.0120 -0.1051
  575CHOL    C1 6044  10.813   6.343   4.106  0.1179  0.0393 -0.1082
  575CHOL    C2 6045  10.874   6.271   4.505 -0.1790  0.2164 -0.3586
  576POPE   NH3 6046   9.763  11.150   2.645  0.1278 -0.0674  0.0904
  576POPE   PO4 6047   9.358  10.964   2.681  0.4871 -0.1581 -0.1300
  576POPE   GL1 6048   9.449  10.688   3.071 -0.1697 -0.2571 -0.2347
  576POPE   GL2 6049   9.551  10.477   3.099 -0.3223  0.2495  0.3169
  576POPE   C1A 6050   9.470  10.865   3.611 -0.0902  0.2567 -0.4152
  576POPE   D2A 6051   9.526  11.202   3.997  0.3536  0.2890 -0.2721
  576POPE   C3A 6052   9.244  11.318   4.237 -0.0288 -0.1084 -0.2478
  576POPE   C4A 6053   9.043  11.597   4.404  0.0903  0.1272 -0.3751
  576POPE   C1B 6054   9.587  10.252   3.611  0.2302  0.1291 -0.0354
  576POPE   C2B 6055   9.510  10.467   4.015  0.3187 -0.1895 -0.0383
  576POPE   C3B 6056   9.327  10.334   4.287  0.4457 -0.2067 -0.0740
  576POPE   C4B 6057   9.300  10.494   4.746 -0.1332  0.0647  0.0881
  577POPC   NC3 6058  11.544   5.735   2.171  0.2890  0.1045 -0.1802
  577POPC   PO4 6059  11.728   5.284   2.468 -0.1337  0.4141 -0.1136
  577POPC   GL1 6060  11.798   5.415   2.803 -0.2834 -0.5230 -0.2217
  577POPC   GL2 6061  11.650   5.743   2.686  0.2320 -0.0185 -0.0172
  577POPC   C1A 6062  11.674   5.394   3.082  0.1144 -0.1132 -0.3516
  577POPC   D2A 6063  11.691   5.214   3.523 -0.2317 -0.0384 -0.0009
  577POPC   C3A 6064  11.637   4.918   3.803 -0.0988  0.2299  0.2128
  577POPC   C4A 6065  11.489   4.923   4.136  0.1998  0.0092 -0.0847
  577POPC   C1B 6066  11.332   5.802   3.055  0.2537 -0.0820 -0.3091
  577POPC   C2B 6067  11.174   5.842   3.409 -0.2211 -0.0082 -0.1365
  577POPC   C3B 6068  11.082   5.759   3.843 -0.1808  0.0877 -0.0906
  577POPC   C4B 6069  11.198   6.012   4.182  0.2655 -0.1665 -0.0697
  578POPS   CNO 6070   5.475  11.087   2.721 -0.2204 -0.1944 -0.3100
  578POPS   PO4 6071   5.733  11.478   2.609 -0.0192  0.1328 -0.0037
  578POPS   GL1 6072   5.778  11.533   2.980 -0.0538 -0.1379  0.1294
  578POPS   GL2 6073   5.670  11.771   3.137 -0.1087  0.2527  0.2048
  578POPS   C1A 6074   5.882  11.298   3.317  0.1932  0.0032 -0.0120
  578POPS   D2A 6075   6.078  11.115   3.642  0.1268  0.1029 -0.0170
  578POPS   C3A 6076   6.112  11.044   4.019 -0.1458 -0.3552 -0.1878
  578POPS   C4A 6077   5.906  10.907   4.410 -0.1124  0.0258 -0.0046
  578POPS   C1B 6078   5.662  11.727   3.553 -0.0814  0.0567  0.1534
  578POPS   C2B 6079   5.820  11.883   3.994  0.2216 -0.0344  0.0933
  578POPS   C3B 6080   5.689  11.847   4.354 -0.0494 -0.2077  0.1089
  578POPS   C4B 6081   5.298  11.952   4.649  0.1227 -0.2413 -0.0175
  579POSM   NC3 6082   7.785   4.533   1.831  0.0389 -0.0463  0.0680
  579POSM   PO4 6083   7.684   4.595   2.303 -0.0678  0.3410 -0.1236
  579POSM   AM1 6084   7.714   4.522   2.774 -0.2088  0.1429  0.1182
  579POSM   AM2 6085   7.381   4.432   2.879  0.1481 -0.4457 -0.1764
  579POSM   T1A 6086   7.941   4.750   3.091  0.0535 -0.0169  0.3922
  579POSM   C2A 6087   8.084   4.744   3.457 -0.0415  0.0266  0.0365
  579POSM   C3A 6088   8.198   4.675   3.878 -0.2471 -0.0366 -0.1932
  579POSM   C1B 6089   7.524   4.623   3.262  0.2561 -0.0278 -0.1582
  579POSM   D2B 6090   7.481   4.802   3.632 -0.0354  0.2837  0.1015
  579POSM   C3B 6091   7.735   4.716   4.004  0.2705 -0.2526  0.0054
  579POSM   C4B 6092   7.992   4.450   4.322 -0.0023 -0.0635  0.3885
  580CHOL   ROH 6093   4.165   6.256   2.876 -0.2377  0.0189 -0.0356
  580CHOL    R1 6094   4.155   6.134   3.131  0.1868 -0.0209 -0.0303
  580CHOL    R2 6095   4.372   6.126   3.301  0.3615  0.3348 -0.2067
  580CHOL    R3 6096   4.198   6.239   3.476  0.3101  0.0399 -0.0639
  580CHOL    R4 6097   4.400   6.110   3.645  0.4711  0.1184 -0.2248
  580CHOL    R5 6098   4.184   6.082   3.656  0.5099 -0.0948 -0.1744
  580CHOL    C1 6099   4.253   6.207   4.010  0.4866 -0.2844 -0.1012
  580CHOL    C2 6100   4.306   5.870   4.280 -0.0164 -0.0352 -0.0202
  581POPS   CNO 6101  12.143   7.041   2.354 -0.1571  0.4500  0.0210
  581POPS   PO4 6102  12.001   6.777   2.667  0.2360 -0.2786  0.1782
  581POPS   GL1 6103  11.962   6.701   2.971  0.1514  0.2255  0.1118
  581POPS   GL2 6104  12.252   6.753   3.138  0.1711  0.0058  0.1440
  581POPS   C1A 6105  11.822   6.567   3.338  0.1090 -0.1807  0.1636
  581POPS   D2A 6106  11.925   6.426   3.634 -0.0806 -0.1822  0.1437
  581POPS   C3A 6107  11.798   6.449   4.033  0.2176  0.1297 -0.0710
  581POPS   C4A 6108  11.854   6.465   4.421 -0.2065 -0.1276  0.1521
  581POPS   C1B 6109  12.363   7.002   3.434 -0.0643 -0.1768 -0.0648
  581POPS   C2B 6110  12.373   7.141   3.877 -0.0963  0.0234  0.0554
  581POPS   C3B 6111  12.416   7.417   4.289 -0.0674 -0.0763 -0.0422
  581POPS   C4B 6112  12.462   7.815   4.332  0.1266  0.0013  0.2344
  582POPE   NH3 6113   8.662   4.580   2.144 -0.1143  0.0447 -0.2338
  582POPE   PO4 6114   8.451   4.770   2.502  0.2849 -0.0637  0.0920
  582POPE   GL1 6115   8.465   5.015   2.914  0.1806 -0.2677 -0.0630
  582POPE   GL2 6116   8.261   5.152   3.050 -0.0041 -0.1758 -0.1487
  582POPE   C1A 6117   8.614   4.801   3.281  0.0906  0.0635 -0.1827
  582POPE   D2A 6118   8.634   4.908   3.756  0.1237  0.1007 -0.0602
  582POPE   C3A 6119   8.918   4.970   4.044 -0.0120 -0.1504 -0.0142
  582POPE   C4A 6120   9.055   4.734   4.456 -0.2075 -0.2811 -0.3057
  582POPE   C1B 6121   8.404   5.212   3.459  0.4009 -0.1348 -0.2458
  582POPE   C2B 6122   8.473   5.337   3.871 -0.4022 -0.2489 -0.1142
  582POPE   C3B 6123   8.638   5.342   4.335 -0.1407 -0.3665  0.0754
  582POPE   C4B 6124   8.962   5.221   4.571 -0.0322 -0.1320 -0.0634
  583POSM   NC3 6125   7.783  11.866   2.160 -0.1771  0.2714 -0.2022
  583POSM   PO4 6126   8.047  11.761   2.561 -0.0776 -0.0696 -0.3170
  583POSM   AM1 6127   8.176  11.697   3.022  0.1982  0.1100  0.1973
  583POSM   AM2 6128   8.074  11.419   3.001 -0.4081  0.2053 -0.2704
  583POSM   T1A 6129   8.059  11.697   3.490  0.2154  0.1537 -0.1697
  583POSM   C2A 6130   7.949  11.627   3.974  0.3059  0.1385 -0.2942
  583POSM   C3A 6131   8.054  11.416   4.281 -0.3408  0.1949  0.1080
  583POSM   C1B 6132   7.893  11.192   3.462 -0.0153 -0.2233  0.0218
  583POSM   D2B 6133   7.834  11.170   3.874  0.0387  0.1449  0.1724
  583POSM   C3B 6134   7.974  10.936   4.236 -0.1589 -0.1506 -0.0116
  583POSM   C4B 6135   7.998  10.930   4.661 -0.0195 -0.2565  0.2450
  584CHOL   ROH 6136   5.803   4.920   3.057 -0.0306 -0.0609 -0.0673
  584CHOL    R1 6137   5.866   4.760   3.282 -0.0203  0.0119 -0.0173
  584CHOL    R2 6138   5.998   4.860   3.504 -0.1002  0.1094 -0.0102
  584CHOL    R3 6139   5.784   4.757   3.636 -0.0934  0.0649 -0.0344
  584CHOL    R4 6140   5.984   4.805   3.845 -0.1423  0.1340 -0.0082
  584CHOL    R5 6141   5.880   4.618   3.805 -0.0860  0.1053 -0.0077
  584CHOL    C1 6142   5.775   4.676   4.168 -0.1603  0.1066 -0.0298
  584CHOL    C2 6143   5.641   4.807   4.543  0.1088  0.1632  0.3928
  585CHOL   ROH 6144   8.470  11.087   2.916  0.0951  0.0672  0.0215
  585CHOL    R1 6145   8.545  11.171   3.176  0.0214  0.2397 -0.0127
  585CHOL    R2 6146   8.367  11.292   3.350 -0.1359  0.0018 -0.0049
  585CHOL    R3 6147   8.444  11.093   3.517  0.2129  0.1532  0.0254
  585CHOL    R4 6148   8.323  11.294   3.693 -0.1862 -0.0509 -0.0096
  585CHOL    R5 6149   8.522  11.207   3.714 -0.0207  0.3157  0.0269
  585CHOL    C1 6150   8.370  11.108   4.049  0.1121  0.0605  0.0161
  585CHOL    C2 6151   8.504  11.000   4.344 -0.0204 -0.0577  0.5798
  586POSM   NC3 6152   6.018  10.528   2.171 -0.0575 -0.1415  0.0136
  586POSM   PO4 6153   6.406  10.767   2.259  0.0512 -0.0845  0.0995
  586POSM   AM1 6154   6.423  10.810   2.785 -0.2028  0.0329  0.3812
  586POSM   AM2 6155   6.690  10.741   2.861 -0.0828 -0.1360  0.0340
  586POSM   T1A 6156   6.499  11.104   3.106  0.1520  0.1186 -0.3909
  586POSM   C2A 6157   6.576  11.063   3.518 -0.0437 -0.2719 -0.1344
  586POSM   C3A 6158   6.607  11.070   3.915 -0.1503 -0.1394  0.2171
  586POSM   C1B 6159   6.799  10.662   3.326  0.0031 -0.2371 -0.1186
  586POSM   D2B 6160   6.947  10.726   3.682 -0.4432 -0.3775  0.0006
  586POSM   C3B 6161   6.958  10.851   4.157  0.0517  0.0316  0.1158
  586POSM   C4B 6162   7.070  11.219   4.411  0.1436  0.1713  0.1683
  587CHOL   ROH 6163   6.870   4.577   2.956  0.0782 -0.0022  0.0294
  587CHOL    R1 6164   7.021   4.548   3.193  0.0513 -0.0400  0.0415
  587CHOL    R2 6165   7.015   4.736   3.396  0.0863 -0.0363  0.0361
  587CHOL    R3 6166   6.952   4.520   3.549  0.0163 -0.0156  0.0373
  587CHOL    R4 6167   6.981   4.740   3.740 -0.1407  0.0299  0.0145
  587CHOL    R5 6168   7.082   4.547   3.748 -0.1166  0.0441  0.1193
  587CHOL    C1 6169   6.901   4.541   4.084 -0.3386  0.0878  0.0031
  587CHOL    C2 6170   7.136   4.864   4.202 -0.3800  0.2580  0.2703
  588POSM   NC3 6171  10.503   4.181   2.511  0.0251  0.0842  0.0624
  588POSM   PO4 6172  10.151   4.124   2.378  0.1045 -0.0541 -0.1848
  588POSM   AM1 6173   9.961   4.529   2.544 -0.0761  0.2594 -0.3806
  588POSM   AM2 6174   9.566   4.467   2.511  0.0235  0.2147  0.1400
  588POSM   T1A 6175   9.849   4.701   2.923  0.2722  0.1944  0.1055
  588POSM   C2A 6176   9.876   4.986   3.159 -0.3397 -0.0605  0.2107
  588POSM   C3A 6177   9.791   5.408   2.879  0.0831 -0.1106 -0.2037
  588POSM   C1B 6178   9.447   4.391   2.927 -0.1448  0.0443  0.1292
  588POSM   D2B 6179   9.588   4.215   3.301 -0.3153 -0.5200  0.2116
  588POSM   C3B 6180   9.430   4.317   3.699 -0.0634 -0.0170  0.0402
  588POSM   C4B 6181   9.300   4.425   4.173 -0.1305  0.1537 -0.2169
  589POSM   NC3 6182   8.359   3.894   2.091 -0.1038 -0.0860  0.1974
  589POSM   PO4 6183   8.693   4.098   2.055  0.2490  0.2014  0.3241
  589POSM   AM1 6184   8.703   4.158   2.458 -0.0305  0.2062  0.0281
  589POSM   AM2 6185   8.412   3.960   2.609  0.2184 -0.2439 -0.1691
  589POSM   T1A 6186   8.758   4.428   2.909  0.2411  0.0923  0.3031
  589POSM   C2A 6187   9.088   4.467   3.227 -0.0164 -0.0421  0.3045
  589POSM   C3A 6188   9.035   4.646   3.558  0.2845 -0.3557 -0.1576
  589POSM   C1B 6189   8.687   3.911   2.962 -0.1357 -0.1772 -0.1522
  589POSM   D2B 6190   8.986   3.967   3.278 -0.0577  0.1052 -0.0959
  589POSM   C3B 6191   9.164   3.914   3.648  0.1149  0.1720  0.0494
  589POSM   C4B 6192   9.122   3.841   4.091 -0.0954 -0.0462  0.0350
  590POPS   CNO 6193  10.876   9.595   2.071  0.0500  0.0522 -0.0561
  590POPS   PO4 6194  11.012   9.720   2.540  0.3240 -0.0702 -0.2714
  590POPS   GL1 6195  10.968   9.654   2.942  0.2396  0.0042  0.0972
  590POPS   GL2 6196  11.096   9.333   2.989 -0.4625  0.0524  0.4420
  590POPS   C1A 6197  10.759   9.676   3.282 -0.0583  0.2506 -0.0364
  590POPS   D2A 6198  10.714   9.607   3.738 -0.5509  0.0213  0.1318
  590POPS   C3A 6199  10.939   9.869   4.007  0.2105 -0.2623 -0.1371
  590POPS   C4A 6200  11.115  10.168   4.165 -0.0698 -0.0719 -0.2118
  590POPS   C1B 6201  11.242   9.112   3.334  0.0582  0.0340  0.1420
  590POPS   C2B 6202  11.486   9.085   3.711  0.1212 -0.3259 -0.1206
  590POPS   C3B 6203  11.572   8.777   3.975  0.1535 -0.0197 -0.5809
  590POPS   C4B 6204  11.357   8.759   4.392  0.1597 -0.2326  0.1143
  591POPC   NC3 6205  11.001   9.997   1.829  0.0131 -0.3948  0.1748
  591POPC   PO4 6206  10.836  10.087   2.277  0.1149  0.0720 -0.0726
  591POPC   GL1 6207  10.966  10.205   2.624  0.1095 -0.1135  0.2020
  591POPC   GL2 6208  10.753  10.419   2.798 -0.1674  0.0617  0.0269
  591POPC   C1A 6209  11.088  10.088   3.080 -0.0955 -0.2376 -0.4537
  591POPC   D2A 6210  10.961  10.066   3.552 -0.1616  0.3893  0.0080
  591POPC   C3A 6211  10.990  10.475   3.781  0.1567  0.0048  0.2010
  591POPC   C4A 6212  10.903  10.879   3.893 -0.0852 -0.2216 -0.0442
  591POPC   C1B 6213  10.586  10.159   3.118 -0.1390  0.1448 -0.2517
  591POPC   C2B 6214  10.503  10.035   3.470  0.1464 -0.0517 -0.0213
  591POPC   C3B 6215  10.309   9.900   3.893  0.1124 -0.0613  0.0442
  591POPC   C4B 6216  10.054   9.528   4.096 -0.1894 -0.1509  0.0405
  592POSM   NC3 6217   4.383   7.251   2.602  0.0234 -0.0517  0.1362
  592POSM   PO4 6218   4.191   6.779   2.731  0.1048 -0.1770 -0.0841
  592POSM   AM1 6219   4.144   7.133   3.114  0.0138  0.3923 -0.0763
  592POSM   AM2 6220   4.288   7.380   3.110 -0.3161 -0.3270  0.1740
  592POSM   T1A 6221   4.213   6.926   3.438  0.0716  0.0510 -0.0016
  592POSM   C2A 6222   4.024   6.671   3.740 -0.2635  0.1247  0.0419
  592POSM   C3A 6223   4.172   6.679   4.188 -0.0120  0.0837 -0.1139
  592POSM   C1B 6224   4.529   7.578   3.253 -0.2585 -0.1806 -0.0267
  592POSM   D2B 6225   4.413   7.944   3.567  0.0582 -0.1511  0.2808
  592POSM   C3B 6226   4.531   7.746   3.904 -0.2628 -0.1462 -0.0892
  592POSM   C4B 6227   4.539   7.498   4.251  0.0103 -0.0210 -0.0574
  593POPE   NH3 6228  12.158   7.750   2.906  0.1557  0.4025  0.1917
  593POPE   PO4 6229  12.411   7.973   2.665 -0.0998  0.0011 -0.0804
  593POPE   GL1 6230  12.668   7.804   3.036 -0.0938 -0.0314 -0.0642
  593POPE   GL2 6231  12.563   7.446   3.133 -0.0656  0.0968  0.2848
  593POPE   C1A 6232  12.900   7.877   3.432 -0.2078 -0.4872 -0.1118
  593POPE   D2A 6233  12.863   7.927   3.939  0.0480 -0.2694  0.1058
  593POPE   C3A 6234  13.264   7.836   4.131 -0.2400  0.0968  0.1455
  593POPE   C4A 6235  13.490   7.641   4.524 -0.0291  0.0906  0.4683
  593POPE   C1B 6236  12.507   7.544   3.611  0.1679  0.0480  0.0311
  593POPE   C2B 6237  12.870   7.484   4.005 -0.0586  0.0886  0.2527
  593POPE   C3B 6238  13.008   7.288   4.462 -0.0138  0.3622 -0.2459
  593POPE   C4B 6239  13.135   7.071   4.909 -0.1880  0.3464 -0.0224
  594POPS   CNO 6240   4.937   9.846   2.435  0.1877  0.4400  0.1306
  594POPS   PO4 6241   4.906  10.100   2.802 -0.0069  0.2414  0.0056
  594POPS   GL1 6242   4.764   9.993   3.290  0.2095 -0.2872 -0.1061
  594POPS   GL2 6243   4.541   9.763   3.450  0.2337  0.0220  0.0259
  594POPS   C1A 6244   4.901  10.135   3.727 -0.0942 -0.0334  0.0892
  594POPS   D2A 6245   5.144  10.074   4.081  0.1220  0.0650  0.4117
  594POPS   C3A 6246   5.316  10.272   4.306 -0.2127  0.1971  0.0558
  594POPS   C4A 6247   5.540  10.505   4.529  0.1472  0.2671 -0.0019
  594POPS   C1B 6248   4.629   9.466   3.761  0.2452 -0.0466 -0.3259
  594POPS   C2B 6249   4.662   9.305   4.124  0.0737 -0.0058 -0.0383
  594POPS   C3B 6250   4.469   9.234   4.464  0.3282  0.0108  0.0754
  594POPS   C4B 6251   4.516   9.600   4.818 -0.1154  0.2005  0.2534
  595POPS   CNO 6252   4.704  10.682   2.213 -0.0836  0.2305  0.1267
  595POPS   PO4 6253   4.864  10.589   2.593  0.2598  0.1762  0.4630
  595POPS   GL1 6254   5.004  10.867   2.805  0.1325  0.1171  0.0277
  595POPS   GL2 6255   4.898  11.313   2.880 -0.0328 -0.2089 -0.3424
  595POPS   C1A 6256   5.123  10.964   3.154 -0.1350 -0.0971 -0.1673
  595POPS   D2A 6257   4.987  11.215   3.546  0.1139 -0.0833 -0.0376
  595POPS   C3A 6258   4.658  11.012   3.778  0.1767  0.0928 -0.2644
  595POPS   C4A 6259   4.724  11.054   4.178  0.1935 -0.1390  0.1970
  595POPS   C1B 6260   4.770  11.472   3.172 -0.1792  0.0879  0.4312
  595POPS   C2B 6261   4.691  11.739   3.532 -0.3569  0.0641  0.0002
  595POPS   C3B 6262   4.701  11.517   3.924 -0.0231 -0.0907  0.1122
  595POPS   C4B 6263   4.830  11.634   4.328 -0.0905  0.0684 -0.0739
  596POPE   NH3 6264   8.448  12.020   2.802 -0.2267  0.0615 -0.0854
  596POPE   PO4 6265   8.458  11.547   2.655 -0.1381 -0.0084  0.1732
  596POPE   GL1 6266   8.679  11.580   3.047  0.3063 -0.2336  0.1168
  596POPE   GL2 6267   8.873  11.897   3.134  0.4442  0.0509 -0.0303
  596POPE   C1A 6268   8.974  11.370   3.290 -0.1187 -0.1784 -0.2311
  596POPE   D2A 6269   9.216  11.307   3.567  0.2107 -0.4767  0.0139
  596POPE   C3A 6270   8.976  11.291   3.850  0.0506 -0.0060  0.0262
  596POPE   C4A 6271   8.804  11.288   4.099 -0.3267 -0.0144  0.0081
  596POPE   C1B 6272   8.627  11.699   3.503 -0.0919 -0.2151 -0.0005
  596POPE   C2B 6273   8.528  11.661   3.984 -0.0843 -0.0383 -0.0885
  596POPE   C3B 6274   8.537  11.547   4.464 -0.1844 -0.2410 -0.1928
  596POPE   C4B 6275   8.768  11.233   4.682  0.0080  0.1511 -0.0517
  597POPS   CNO 6276  11.246   8.084   2.452  0.0569  0.0570 -0.2152
  597POPS   PO4 6277  10.981   8.443   2.595  0.2297  0.0324 -0.2824
  597POPS   GL1 6278  11.024   8.291   3.083  0.0491  0.2155 -0.0841
  597POPS   GL2 6279  11.119   8.571   3.180 -0.0962 -0.0438  0.0753
  597POPS   C1A 6280  11.159   8.119   3.497 -0.1453  0.0529 -0.1471
  597POPS   D2A 6281  11.071   7.950   3.874  0.0283 -0.0681 -0.5827
  597POPS   C3A 6282  10.624   7.692   4.041  0.2203 -0.3501  0.0241
  597POPS   C4A 6283  10.393   7.640   4.356  0.1798  0.1382  0.2212
  597POPS   C1B 6284  10.891   8.567   3.492 -0.3083  0.1034 -0.0041
  597POPS   C2B 6285  10.932   8.494   3.889  0.0478  0.0016  0.1300
  597POPS   C3B 6286  10.877   8.485   4.321  0.2601  0.1616  0.0558
  597POPS   C4B 6287  11.011   8.552   4.817 -0.0245 -0.0334 -0.1315
  598POSM   NC3 6288   8.837  11.443   2.304  0.0084 -0.0639  0.1676
  598POSM   PO4 6289   9.389  11.436   2.423 -0.1257 -0.3128 -0.2490
  598POSM   AM1 6290   9.431  11.471   2.886  0.0467  0.0908 -0.2624
  598POSM   AM2 6291   9.351  11.805   2.956  0.1199  0.3079 -0.0739
  598POSM   T1A 6292   9.552  11.218   3.241 -0.1608  0.2050  0.1978
  598POSM   C2A 6293   9.770  11.299   3.590  0.1135  0.3085  0.2464
  598POSM   C3A 6294   9.938  11.443   3.991 -0.0065 -0.2966 -0.3426
  598POSM   C1B 6295   9.616  11.705   3.360 -0.0514  0.2504  0.5259
  598POSM   D2B 6296   9.615  11.761   3.766 -0.0468 -0.0719  0.2821
  598POSM   C3B 6297   9.425  12.073   3.852 -0.0581  0.0258 -0.1594
  598POSM   C4B 6298   9.175  12.208   4.205 -0.2554 -0.3189  0.2151
  599CHOL   ROH 6299   6.354  11.691   2.908 -0.0370  0.0441  0.1024
  599CHOL    R1 6300   6.233  11.619   3.153 -0.0491 -0.1004  0.0565
  599CHOL    R2 6301   6.372  11.493   3.357 -0.0033 -0.0422  0.0734
  599CHOL    R3 6302   6.279  11.701   3.505 -0.1995 -0.1366  0.0831
  599CHOL    R4 6303   6.360  11.501   3.702  0.1534  0.0130  0.0773
  599CHOL    R5 6304   6.166  11.598   3.688  0.0252 -0.2430  0.1569
  599CHOL    C1 6305   6.266  11.700   4.042  0.0604 -0.0434  0.0887
  599CHOL    C2 6306   6.477  11.914   4.257  0.0602  0.1599 -0.0287
  600CHOL   ROH 6307   3.800   8.212   3.274 -0.0396  0.0273  0.1003
  600CHOL    R1 6308   3.926   8.144   3.518 -0.0705  0.0306  0.1167
  600CHOL    R2 6309   3.793   8.149   3.760 -0.1307 -0.0732  0.0827
  600CHOL    R3 6310   3.881   7.893   3.777 -0.0272 -0.0406  0.0567
  600CHOL    R4 6311   3.929   8.006   4.044 -0.3551 -0.1288  0.1646
  600CHOL    R5 6312   4.076   7.906   3.917 -0.1728 -0.0050  0.2658
  600CHOL    C1 6313   4.090   7.681   4.225 -0.3886 -0.1307  0.1879
  600CHOL    C2 6314   4.232   7.839   4.569  0.1513  0.3372 -0.0097
  601POPE   NH3 6315   7.104   3.916   2.428  0.0126  0.1224  0.0121
  601POPE   PO4 6316   6.978   4.138   2.697 -0.3388 -0.1095  0.2674
  601POPE   GL1 6317   7.004   4.069   3.105  0.1403 -0.1467 -0.0756
  601POPE   GL2 6318   6.668   4.263   3.306 -0.0410  0.0979 -0.0965
  601POPE   C1A 6319   7.266   4.133   3.446 -0.0254  0.0546  0.0742
  601POPE   D2A 6320   7.535   4.326   3.672  0.3589 -0.2511 -0.0333
  601POPE   C3A 6321   7.362   4.307   4.092 -0.2476 -0.0860 -0.2653
  601POPE   C4A 6322   7.176   4.454   4.460 -0.1652 -0.0788  0.0445
  601POPE   C1B 6323   6.658   4.245   3.809  0.1647 -0.0727  0.0778
  601POPE   C2B 6324   6.517   4.037   4.137  0.2611  0.4900  0.2031
  601POPE   C3B 6325   6.557   3.881   4.550  0.1334 -0.1372  0.2594
  601POPE   C4B 6326   6.768   3.909   4.976 -0.0868  0.3037  0.0421
  602POPE   NH3 6327   4.923  11.149   2.316  0.4260 -0.0909 -0.0982
  602POPE   PO4 6328   5.161  11.561   2.506 -0.0097 -0.1267 -0.1317
  602POPE   GL1 6329   5.233  11.656   2.868  0.1758 -0.2521  0.1233
  602POPE   GL2 6330   5.146  11.994   2.991  0.2334 -0.0073 -0.0240
  602POPE   C1A 6331   5.376  11.410   3.230  0.0446  0.0215 -0.0965
  602POPE   D2A 6332   5.468  11.237   3.677  0.0512  0.2056  0.4262
  602POPE   C3A 6333   5.720  11.407   3.959 -0.3359  0.1090  0.1115
  602POPE   C4A 6334   5.913  11.395   4.341 -0.0687 -0.0806  0.0106
  602POPE   C1B 6335   5.130  11.784   3.381 -0.0592  0.0260 -0.0703
  602POPE   C2B 6336   5.182  11.740   3.795  0.0530  0.2471 -0.3204
  602POPE   C3B 6337   5.251  11.373   4.104 -0.0529 -0.2238  0.1717
  602POPE   C4B 6338   5.523  11.069   4.267  0.0332 -0.0719  0.1794
  603POPE   NH3 6339   3.860   5.115   2.194  0.0539 -0.3165  0.1782
  603POPE   PO4 6340   4.305   5.188   2.392 -0.1640  0.0957  0.1284
  603POPE   GL1 6341   4.401   5.304   2.883  0.2250 -0.2065  0.0266
  603POPE   GL2 6342   4.628   5.121   2.924 -0.0039  0.0972  0.1194
  603POPE   C1A 6343   4.453   5.265   3.366 -0.0290  0.2711  0.1792
  603POPE   D2A 6344   4.251   4.993   3.666 -0.0511  0.1822  0.0317
  603POPE   C3A 6345   4.349   5.059   4.005 -0.3717  0.1202  0.0010
  603POPE   C4A 6346   4.359   4.974   4.421  0.0420  0.2886  0.1312
  603POPE   C1B 6347   4.805   4.879   3.318 -0.1331 -0.1471  0.2853
  603POPE   C2B 6348   4.743   4.844   3.686  0.0111 -0.0408 -0.0329
  603POPE   C3B 6349   4.791   4.935   4.143 -0.1357  0.1538  0.2094
  603POPE   C4B 6350   5.274   4.962   4.231  0.1222  0.0097  0.2756
  604POPS   CNO 6351   9.221   3.132   2.615  0.4201 -0.2200 -0.2588
  604POPS   PO4 6352   9.664   3.220   2.509 -0.2168 -0.1053  0.4460
  604POPS   GL1 6353   9.621   3.341   2.971 -0.3580 -0.1281  0.0876
  604POPS   GL2 6354   9.919   3.453   2.945 -0.0985  0.0224 -0.1293
  604POPS   C1A 6355   9.807   3.276   3.439  0.2104  0.0703 -0.3914
  604POPS   D2A 6356   9.952   3.257   3.813  0.2441  0.0981  0.1093
  604POPS   C3A 6357   9.937   3.580   4.137  0.2634 -0.2917  0.3208
  604POPS   C4A 6358  10.177   3.727   4.527  0.0880 -0.1253 -0.0903
  604POPS   C1B 6359   9.949   3.782   3.156  0.0310 -0.2563 -0.1348
  604POPS   C2B 6360  10.047   3.924   3.627 -0.1323 -0.1055 -0.1107
  604POPS   C3B 6361  10.039   4.134   4.001  0.1522  0.3072 -0.0681
  604POPS   C4B 6362  10.261   4.488   4.270  0.2111  0.4333  0.2962
  605CHOL   ROH 6363   4.004   5.640   2.960  0.1441 -0.3067  0.1058
  605CHOL    R1 6364   4.096   5.570   3.219  0.1411 -0.1388  0.1529
  605CHOL    R2 6365   4.197   5.756   3.396  0.0600 -0.0106  0.0640
  605CHOL    R3 6366   4.009   5.652   3.562  0.0778  0.0144  0.1012
  605CHOL    R4 6367   4.257   5.650   3.719  0.1498 -0.2109 -0.0157
  605CHOL    R5 6368   4.125   5.480   3.683  0.0338 -0.1157 -0.0397
  605CHOL    C1 6369   4.115   5.491   4.064  0.2187 -0.3041 -0.0273
  605CHOL    C2 6370   4.044   5.395   4.365 -0.1182 -0.0909  0.3552
  606POPS   CNO 6371  11.060   5.781   2.463 -0.0039 -0.2131  0.1488
  606POPS   PO4 6372  10.826   6.100   2.608 -0.6146 -0.0879  0.2286
  606POPS   GL1 6373  10.795   5.933   2.973 -0.2470 -0.0965 -0.2263
  606POPS   GL2 6374  10.802   5.641   2.904 -0.0469 -0.1697 -0.0192
  606POPS   C1A 6375  10.661   5.983   3.371 -0.0772  0.2324 -0.1089
  606POPS   D2A 6376  10.202   6.007   3.589 -0.1365  0.1158  0.0836
  606POPS   C3A 6377  10.216   6.130   3.988  0.0228 -0.2748 -0.3282
  606POPS   C4A 6378  10.304   6.211   4.408 -0.2243 -0.1786  0.2957
  606POPS   C1B 6379  10.754   5.483   3.222  0.0512  0.2414  0.0977
  606POPS   C2B 6380  10.544   5.575   3.554  0.0823  0.0374 -0.1011
  606POPS   C3B 6381  10.596   5.785   3.938  0.2085  0.0647 -0.0128
  606POPS   C4B 6382  10.706   5.879   4.296 -0.1636  0.0173  0.3786
  607POPC   NC3 6383   5.330   5.110   2.429  0.0270 -0.2253 -0.1142
  607POPC   PO4 6384   5.015   5.193   2.640  0.0865 -0.1310  0.2864
  607POPC   GL1 6385   5.186   4.991   2.964 -0.5108 -0.2535  0.4147
  607POPC   GL2 6386   5.405   5.272   2.997 -0.0666  0.3696 -0.0273
  607POPC   C1A 6387   5.353   4.816   3.315 -0.3154  0.2625 -0.0047
  607POPC   D2A 6388   5.316   4.807   3.766 -0.0920  0.0322 -0.0564
  607POPC   C3A 6389   5.116   4.527   3.954 -0.2016  0.0263 -0.1566
  607POPC   C4A 6390   4.901   4.295   4.236 -0.0395 -0.0077 -0.1363
  607POPC   C1B 6391   5.037   5.319   3.369 -0.2345 -0.0990  0.1420
  607POPC   C2B 6392   4.817   5.327   3.785  0.0574  0.2443 -0.2697
  607POPC   C3B 6393   4.589   5.457   4.223  0.2027  0.1059 -0.0350
  607POPC   C4B 6394   4.512   5.560   4.621  0.0501  0.2714 -0.3079
  608POPC   NC3 6395  12.539   8.901   2.267  0.0548 -0.2037 -0.2071
  608POPC   PO4 6396  12.550   9.187   2.520  0.1377  0.2270  0.1419
  608POPC   GL1 6397  12.389   9.234   3.023 -0.0280 -0.3281 -0.3394
  608POPC   GL2 6398  12.170   9.567   3.026  0.1346 -0.0370 -0.0018
  608POPC   C1A 6399  12.247   8.956   3.439 -0.2876 -0.2615  0.1868
  608POPC   D2A 6400  11.929   8.849   3.587  0.0993  0.4513 -0.0690
  608POPC   C3A 6401  11.673   8.727   3.369 -0.1541  0.2367 -0.2788
  608POPC   C4A 6402  11.361   8.575   3.591  0.3158 -0.1060  0.0996
  608POPC   C1B 6403  12.289   9.525   3.392 -0.1528  0.2358 -0.1382
  608POPC   C2B 6404  12.278   9.228   3.825 -0.1679 -0.7398  0.0203
  608POPC   C3B 6405  12.006   8.968   4.036  0.1042  0.0342  0.1782
  608POPC   C4B 6406  11.779   8.979   4.456 -0.0745  0.1029 -0.0827
  609POPE   NH3 6407  11.788   6.490   2.134 -0.1177 -0.2378  0.3425
  609POPE   PO4 6408  11.479   6.209   2.455  0.0863 -0.0842  0.0352
  609POPE   GL1 6409  11.481   6.351   2.895  0.0146 -0.0552  0.0410
  609POPE   GL2 6410  11.477   6.770   2.942 -0.0209  0.0036  0.0251
  609POPE   C1A 6411  11.480   6.224   3.316  0.2769  0.0617  0.1233
  609POPE   D2A 6412  11.515   6.171   3.746  0.5413 -0.2509 -0.0180
  609POPE   C3A 6413  11.657   5.895   4.080 -0.0314 -0.2604 -0.4774
  609POPE   C4A 6414  11.708   5.411   3.994 -0.0844 -0.1802 -0.0287
  609POPE   C1B 6415  11.371   6.799   3.287 -0.0267  0.2920 -0.0288
  609POPE   C2B 6416  11.346   6.678   3.669 -0.1319  0.2947 -0.2766
  609POPE   C3B 6417  11.293   6.495   4.142  0.1599  0.3106 -0.0397
  609POPE   C4B 6418  11.371   6.458   4.543  0.0312  0.3579 -0.0559
  610CHOL   ROH 6419   8.264   4.463   2.841 -0.0140  0.0324 -0.0466
  610CHOL    R1 6420   8.295   4.442   3.121 -0.2796 -0.1777 -0.0293
  610CHOL    R2 6421   8.346   4.202   3.248  0.1161 -0.2061 -0.2206
  610CHOL    R3 6422   8.558   4.338   3.352 -0.2888  0.1747  0.1473
  610CHOL    R4 6423   8.513   4.115   3.538  0.2462 -0.3702 -0.3431
  610CHOL    R5 6424   8.524   4.327   3.589 -0.3617 -0.4268  0.1218
  610CHOL    C1 6425   8.809   4.192   3.804 -0.0581 -0.1082 -0.0690
  610CHOL    C2 6426   8.833   4.476   4.047  0.0353  0.2059 -0.3726
  611POSM   NC3 6427   3.746   7.947   2.808 -0.1696 -0.1561  0.1369
  611POSM   PO4 6428   4.118   7.671   2.710  0.1766 -0.1408  0.0638
  611POSM   AM1 6429   3.908   7.654   3.179 -0.0910 -0.1242  0.0123
  611POSM   AM2 6430   3.647   7.690   3.322 -0.1833  0.0036  0.0394
  611POSM   T1A 6431   4.053   7.506   3.522 -0.1057  0.2734 -0.1886
  611POSM   C2A 6432   3.912   7.166   3.706 -0.1230  0.3642 -0.2358
  611POSM   C3A 6433   3.732   6.905   4.055  0.3175  0.1160  0.2972
  611POSM   C1B 6434   3.567   7.532   3.667  0.2379 -0.1442  0.1726
  611POSM   D2B 6435   3.743   7.385   4.125 -0.1529 -0.2179 -0.2734
  611POSM   C3B 6436   4.136   7.186   4.203 -0.2354  0.0053 -0.2369
  611POSM   C4B 6437   4.398   7.019   3.930  0.2949 -0.1636 -0.3290
  612POSM   NC3 6438   9.264  12.680   2.732  0.1786  0.0567  0.0709
  612POSM   PO4 6439   9.660  12.534   2.536 -0.2750  0.3167  0.0903
  612POSM   AM1 6440   9.656  12.280   2.924  0.0619  0.1759 -0.2233
  612POSM   AM2 6441   9.900  12.044   3.086  0.1447  0.1456 -0.0035
  612POSM   T1A 6442   9.404  12.143   3.345 -0.2612 -0.0304  0.2916
  612POSM   C2A 6443   9.147  11.841   3.527 -0.2285  0.0323 -0.2468
  612POSM   C3A 6444   9.095  11.738   3.937 -0.0863  0.1429 -0.0981
  612POSM   C1B 6445   9.880  12.307   3.453  0.1439  0.0025  0.0146
  612POSM   D2B 6446   9.978  12.228   3.817  0.0186 -0.2529 -0.2635
  612POSM   C3B 6447   9.801  12.181   4.119 -0.0499  0.2031 -0.0263
  612POSM   C4B 6448   9.847  12.220   4.580  0.0881  0.2199 -0.2361
  613POSM   NC3 6449   7.174   3.117   2.486 -0.1459  0.3088  0.1948
  613POSM   PO4 6450   7.409   3.531   2.252 -0.1041  0.1412 -0.0876
  613POSM   AM1 6451   7.430   3.595   2.653 -0.0901 -0.0156 -0.0711
  613POSM   AM2 6452   7.189   3.580   2.843 -0.2083 -0.1230  0.0685
  613POSM   T1A 6453   7.664   3.405   3.019  0.2535 -0.1853 -0.0971
  613POSM   C2A 6454   7.731   3.324   3.411  0.1577  0.0362  0.2935
  613POSM   C3A 6455   7.714   3.293   3.948  0.2759  0.1007 -0.2370
  613POSM   C1B 6456   7.167   3.569   3.262  0.1392 -0.4803  0.1788
  613POSM   D2B 6457   7.251   3.417   3.725 -0.1147  0.1497 -0.0672
  613POSM   C3B 6458   7.209   3.406   4.238  0.1253  0.1399  0.1235
  613POSM   C4B 6459   7.537   3.612   4.593  0.1568 -0.1184 -0.1872
  614POPC   NC3 6460   6.873  12.387   2.652 -0.3558 -0.0341  0.0293
  614POPC   PO4 6461   7.270  12.122   2.768 -0.4953 -0.0834  0.1084
  614POPC   GL1 6462   7.401  12.111   3.170  0.4368 -0.2151 -0.2776
  614POPC   GL2 6463   7.593  12.398   3.215  0.0036  0.0202 -0.2740
  614POPC   C1A 6464   7.161  12.179   3.576 -0.1800  0.0074  0.1319
  614POPC   D2A 6465   7.208  11.756   3.940  0.0764  0.2268 -0.1211
  614POPC   C3A 6466   7.124  11.801   4.303  0.2210  0.0428  0.0279
  614POPC   C4A 6467   6.795  11.600   4.579 -0.0652 -0.0886 -0.0845
  614POPC   C1B 6468   7.621  12.477   3.578 -0.2593  0.0539 -0.0421
  614POPC   C2B 6469   7.614  12.389   4.031  0.0021 -0.0352  0.1185
  614POPC   C3B 6470   7.743  12.309   4.527 -0.1776  0.0032 -0.0398
  614POPC   C4B 6471   7.381  12.170   4.789  0.1374  0.1295  0.0363
  615CHOL   ROH 6472  11.266   5.399   2.768 -0.2303 -0.0504  0.0192
  615CHOL    R1 6473  11.135   5.354   3.015 -0.1346 -0.1304  0.0569
  615CHOL    R2 6474  11.215   5.158   3.192  0.0260 -0.0944  0.0313
  615CHOL    R3 6475  11.224   5.365   3.368 -0.0359 -0.0916  0.0300
  615CHOL    R4 6476  11.218   5.125   3.536 -0.1472 -0.0792  0.0345
  615CHOL    R5 6477  11.083   5.296   3.549 -0.1309 -0.0658 -0.0370
  615CHOL    C1 6478  11.228   5.301   3.901 -0.3062 -0.0677  0.0352
  615CHOL    C2 6479  11.285   5.540   4.263 -0.1236  0.1551  0.0333
  616CHOL   ROH 6480   8.339  12.112   3.238  0.0660 -0.0790 -0.1513
  616CHOL    R1 6481   8.334  12.218   3.500  0.0290 -0.0288 -0.1732
  616CHOL    R2 6482   8.125  12.172   3.675 -0.0033  0.0240 -0.2055
  616CHOL    R3 6483   8.323  12.084   3.839 -0.0430  0.0390 -0.1470
  616CHOL    R4 6484   8.094  12.132   4.017 -0.0769  0.1154 -0.1999
  616CHOL    R5 6485   8.296  12.213   4.039 -0.0662  0.0972 -0.1833
  616CHOL    C1 6486   8.263  12.026   4.370 -0.1570  0.1827 -0.1417
  616CHOL    C2 6487   7.977  11.857   4.637  0.0081 -0.2292  0.0787
  617CHOL   ROH 6488   8.077   3.560   2.894  0.0242 -0.0044 -0.1267
  617CHOL    R1 6489   8.182   3.553   3.157  0.0846  0.2112 -0.1439
  617CHOL    R2 6490   8.194   3.778   3.318 -0.3251  0.2507 -0.1606
  617CHOL    R3 6491   8.057   3.621   3.493  0.0056 -0.0118 -0.1258
  617CHOL    R4 6492   8.193   3.818   3.661 -0.4117  0.3336 -0.1697
  617CHOL    R5 6493   8.203   3.601   3.682  0.0560  0.3457 -0.1188
  617CHOL    C1 6494   8.064   3.694   4.025 -0.1518  0.1355 -0.1423
  617CHOL    C2 6495   7.962   3.545   4.307 -0.0121 -0.0545 -0.0772
  618POSM   NC3 6496   3.561   5.583   2.090  0.0569 -0.1558  0.2065
  618POSM   PO4 6497   3.538   5.448   2.450  0.0523 -0.1780 -0.3279
  618POSM   AM1 6498   3.488   5.577   2.938  0.1551 -0.0767 -0.0566
  618POSM   AM2 6499   3.349   5.851   3.035 -0.3794 -0.1739  0.2498
  618POSM   T1A 6500   3.558   5.543   3.343  0.2332 -0.1770  0.1014
  618POSM   C2A 6501   3.622   5.433   3.751 -0.0134  0.0855 -0.1901
  618POSM   C3A 6502   3.830   5.106   3.959  0.1856  0.2559 -0.1026
  618POSM   C1B 6503   3.193   6.085   3.501  0.2440  0.2422  0.2236
  618POSM   D2B 6504   3.111   6.163   3.886 -0.0698  0.0700 -0.1399
  618POSM   C3B 6505   3.004   6.051   4.293 -0.0031  0.2186 -0.1057
  618POSM   C4B 6506   2.848   5.807   4.603  0.3299 -0.0721 -0.0858
  619POPC   NC3 6507   5.617  11.942   2.612  0.2300  0.0387  0.1652
  619POPC   PO4 6508   5.372  12.274   2.593 -0.2679  0.1052 -0.0101
  619POPC   GL1 6509   5.556  12.308   2.930 -0.4320 -0.2602 -0.2070
  619POPC   GL2 6510   5.643  12.681   3.017 -0.0997  0.0935  0.1123
  619POPC   C1A 6511   5.429  12.200   3.417  0.1346  0.4279  0.1916
  619POPC   D2A 6512   5.408  12.168   3.781  0.4682 -0.0642 -0.0991
  619POPC   C3A 6513   5.610  12.399   4.119 -0.1613 -0.1891 -0.3641
  619POPC   C4A 6514   5.694  12.614   4.440 -0.1035  0.1554 -0.0442
  619POPC   C1B 6515   5.643  12.654   3.408  0.0513  0.1639 -0.0946
  619POPC   C2B 6516   5.644  12.727   3.739  0.1942  0.1099  0.0782
  619POPC   C3B 6517   5.376  12.910   4.078 -0.0320  0.1121  0.0030
  619POPC   C4B 6518   5.048  13.103   4.421 -0.5096 -0.2002 -0.1405
  620POSM   NC3 6519  13.388   6.155   2.195  0.4716  0.0527 -0.3266
  620POSM   PO4 6520  13.482   6.591   2.272 -0.2971 -0.1043  0.0472
  620POSM   AM1 6521  13.115   6.854   2.464 -0.0475 -0.0641  0.1138
  620POSM   AM2 6522  12.910   6.631   2.685  0.0843  0.0184 -0.0363
  620POSM   T1A 6523  13.140   7.260   2.676  0.2284 -0.1059  0.0540
  620POSM   C2A 6524  13.201   7.464   3.068 -0.1532  0.1129  0.0721
  620POSM   C3A 6525  13.447   7.725   3.180  0.1651  0.0729  0.3156
  620POSM   C1B 6526  12.859   7.090   3.010  0.0626 -0.1586  0.3682
  620POSM   D2B 6527  12.917   7.297   3.421 -0.2729  0.0832 -0.1061
  620POSM   C3B 6528  12.898   7.071   3.776 -0.1033  0.1809  0.1907
  620POSM   C4B 6529  13.213   7.011   4.113  0.3149 -0.2032  0.3120
  621POPS   CNO 6530   8.289  12.320   2.011 -0.4039  0.3722 -0.0929
  621POPS   PO4 6531   8.149  12.253   2.430  0.1308  0.4710  0.0853
  621POPS   GL1 6532   8.298  12.508   2.859  0.2516  0.3475 -0.1010
  621POPS   GL2 6533   8.113  12.587   3.086  0.1823  0.0335  0.0967
  621POPS   C1A 6534   8.469  12.887   3.241 -0.2007  0.1497  0.3353
  621POPS   D2A 6535   8.718  12.850   3.590 -0.1443  0.0794  0.0300
  621POPS   C3A 6536   8.567  12.617   3.846 -0.3090 -0.0287  0.0253
  621POPS   C4A 6537   8.774  12.585   4.247  0.1593 -0.4100 -0.1742
  621POPS   C1B 6538   8.122  12.706   3.461  0.0383  0.0781  0.0007
  621POPS   C2B 6539   8.075  12.650   3.949 -0.1156  0.3210  0.0621
  621POPS   C3B 6540   8.016  12.695   4.493 -0.1769  0.3500  0.3492
  621POPS   C4B 6541   8.205  12.792   4.853  0.1728  0.0911  0.1082
  622POPE   NH3 6542   5.493   4.396   2.363 -0.0381 -0.0714 -0.1770
  622POPE   PO4 6543   5.680   4.739   2.502  0.0360 -0.3440 -0.1240
  622POPE   GL1 6544   5.852   4.406   2.780 -0.1156 -0.0420  0.3096
  622POPE   GL2 6545   5.714   4.083   2.744  0.1208 -0.2983  0.1206
  622POPE   C1A 6546   6.135   4.335   3.105  0.1206  0.0563  0.1098
  622POPE   D2A 6547   6.146   4.326   3.522 -0.1751  0.0609 -0.0893
  622POPE   C3A 6548   6.116   4.114   3.870  0.0920  0.2003 -0.2594
  622POPE   C4A 6549   6.044   3.945   4.226 -0.2670 -0.1036 -0.0509
  622POPE   C1B 6550   5.626   4.294   3.180 -0.0213 -0.1594  0.0136
  622POPE   C2B 6551   5.512   4.341   3.643  0.4737 -0.0133 -0.0324
  622POPE   C3B 6552   5.565   4.220   4.031  0.0711 -0.1797  0.0284
  622POPE   C4B 6553   5.380   4.408   4.343  0.3771 -0.0075  0.4686
  623CHOL   ROH 6554  11.412  10.471   2.840  0.0266 -0.1495 -0.1764
  623CHOL    R1 6555  11.544  10.434   3.088  0.1949 -0.1682 -0.2663
  623CHOL    R2 6556  11.410  10.434   3.329  0.4019  0.1900 -0.1422
  623CHOL    R3 6557  11.533  10.193   3.360  0.0861  0.0308 -0.0939
  623CHOL    R4 6558  11.448  10.269   3.631  0.3707  0.2977 -0.0789
  623CHOL    R5 6559  11.649  10.212   3.568  0.2528 -0.0198 -0.1814
  623CHOL    C1 6560  11.585   9.947   3.835  0.0561  0.2110  0.0034
  623CHOL    C2 6561  11.466   9.677   4.159  0.1848  0.0291 -0.0735
  624POPS   CNO 6562   6.534  11.671   2.388  0.1745  0.0947 -0.1066
  624POPS   PO4 6563   6.493  12.070   2.352 -0.0644 -0.1752 -0.1831
  624POPS   GL1 6564   6.480  12.144   2.778 -0.0794 -0.1389 -0.0026
  624POPS   GL2 6565   6.404  12.431   2.921  0.1020  0.0065  0.2364
  624POPS   C1A 6566   6.602  12.010   3.196 -0.1864  0.1256  0.0871
  624POPS   D2A 6567   6.643  11.982   3.698 -0.2227  0.2862 -0.2481
  624POPS   C3A 6568   6.836  12.165   3.989 -0.2284 -0.3387  0.3590
  624POPS   C4A 6569   7.197  12.256   4.260 -0.3217  0.1230 -0.1749
  624POPS   C1B 6570   6.598  12.517   3.401 -0.1215  0.0228 -0.1561
  624POPS   C2B 6571   6.538  12.503   3.818 -0.0533  0.1566  0.0296
  624POPS   C3B 6572   6.554  12.368   4.366  0.2430  0.0509  0.2213
  624POPS   C4B 6573   6.819  12.117   4.690 -0.0529  0.2357 -0.3375
  625POSM   NC3 6574   7.173   4.514   2.434 -0.1616  0.1563  0.0611
  625POSM   PO4 6575   7.544   4.128   2.449 -0.1583  0.0406 -0.0404
  625POSM   AM1 6576   7.669   3.979   2.864 -0.0805 -0.2812 -0.0371
  625POSM   AM2 6577   7.937   4.080   2.896 -0.1028  0.3466  0.0587
  625POSM   T1A 6578   7.705   3.817   3.260 -0.2115  0.1053  0.0184
  625POSM   C2A 6579   7.642   3.800   3.659  0.2934  0.3588 -0.1225
  625POSM   C3A 6580   7.539   3.741   4.055  0.2973 -0.0798  0.0134
  625POSM   C1B 6581   7.858   4.254   3.273 -0.2030 -0.1962  0.3215
  625POSM   D2B 6582   8.012   4.305   3.695 -0.0513  0.1608  0.2924
  625POSM   C3B 6583   7.857   4.111   4.012  0.3956  0.0949 -0.0470
  625POSM   C4B 6584   8.130   3.957   4.531 -0.0202  0.0037 -0.0300
  626POSM   NC3 6585   4.355  10.721   2.657  0.1268 -0.1966 -0.0774
  626POSM   PO4 6586   4.109  10.329   2.630 -0.0417 -0.2114 -0.1654
  626POSM   AM1 6587   3.942  10.210   3.067  0.0640  0.2830  0.1120
  626POSM   AM2 6588   4.014   9.899   3.154 -0.1732  0.3166 -0.0829
  626POSM   T1A 6589   4.261  10.263   3.369  0.2661  0.1057  0.0989
  626POSM   C2A 6590   4.388  10.166   3.804 -0.1077  0.0609  0.1662
  626POSM   C3A 6591   4.657   9.833   4.036 -0.3801 -0.1299 -0.2492
  626POSM   C1B 6592   4.071   9.858   3.639 -0.0495 -0.0655 -0.2545
  626POSM   D2B 6593   4.208   9.645   4.109 -0.1260  0.2225  0.0934
  626POSM   C3B 6594   4.067   9.623   4.510  0.3667 -0.0398 -0.0675
  626POSM   C4B 6595   3.987   9.894   4.850  0.0646 -0.1842 -0.2844
  627POPE   NH3 6596  11.830  10.302   2.371 -0.1188  0.2171  0.1923
  627POPE   PO4 6597  12.201  10.111   2.507 -0.3799 -0.2712  0.3192
  627POPE   GL1 6598  11.957   9.938   2.832  0.0968  0.0216 -0.1985
  627POPE   GL2 6599  11.719  10.044   2.883  0.0145 -0.0220 -0.0634
  627POPE   C1A 6600  11.982   9.942   3.300 -0.0194 -0.0642 -0.1943
  627POPE   D2A 6601  12.088   9.811   3.741  0.0061 -0.2714 -0.3485
  627POPE   C3A 6602  11.967  10.071   4.051 -0.0580  0.3226 -0.2365
  627POPE   C4A 6603  11.576  10.186   4.330  0.0373  0.1419 -0.1454
  627POPE   C1B 6604  11.486   9.738   3.156 -0.2061  0.0250 -0.0893
  627POPE   C2B 6605  11.211   9.661   3.436  0.1048 -0.1385  0.1452
  627POPE   C3B 6606  11.167   9.418   3.859  0.1239 -0.1531 -0.1862
  627POPE   C4B 6607  11.349   9.205   4.151  0.4221 -0.2106 -0.1563
  628POPE   NH3 6608  10.653  11.092   2.356  0.0042 -0.1982 -0.3096
  628POPE   PO4 6609  10.256  11.301   2.558 -0.2567 -0.0602 -0.1085
  628POPE   GL1 6610  10.174  11.035   2.950  0.1924 -0.1360  0.2037
  628POPE   GL2 6611   9.942  10.860   3.055  0.0293 -0.1922  0.2978
  628POPE   C1A 6612  10.194  11.161   3.380 -0.0431  0.0347 -0.2237
  628POPE   D2A 6613  10.358  11.191   3.875 -0.3378  0.0536  0.2038
  628POPE   C3A 6614  10.532  10.824   4.144  0.0871 -0.0221  0.0235
  628POPE   C4A 6615  10.825  10.522   4.344 -0.0040 -0.0429  0.0763
  628POPE   C1B 6616   9.925  10.736   3.442 -0.0519  0.0663 -0.0444
  628POPE   C2B 6617   9.897  10.821   3.905 -0.3713  0.2705 -0.3839
  628POPE   C3B 6618  10.048  10.867   4.368  0.0834 -0.1814  0.1024
  628POPE   C4B 6619  10.120  11.114   4.749  0.3854  0.1137  0.0594
  629CHOL   ROH 6620  10.181   4.284   2.889  0.0431 -0.0705  0.1456
  629CHOL    R1 6621  10.059   4.270   3.144  0.1831 -0.0170  0.2195
  629CHOL    R2 6622  10.194   4.331   3.377  0.2804  0.1617  0.1338
  629CHOL    R3 6623   9.986   4.501   3.415  0.2143  0.0743  0.1457
  629CHOL    R4 6624  10.095   4.456   3.684  0.1694  0.0570  0.1391
  629CHOL    R5 6625   9.888   4.430   3.622  0.2016 -0.0007  0.1026
  629CHOL    C1 6626   9.842   4.688   3.898  0.0428 -0.0860  0.1533
  629CHOL    C2 6627   9.786   4.549   4.210  0.1618  0.0790  0.0722
  630POPE   NH3 6628   8.757   3.209   2.431 -0.0320  0.0748 -0.1028
  630POPE   PO4 6629   8.455   3.488   2.349  0.1438  0.0931 -0.1891
  630POPE   GL1 6630   8.594   3.449   2.856  0.0699 -0.0540 -0.3838
  630POPE   GL2 6631   8.747   3.144   2.966 -0.0130  0.0097 -0.0501
  630POPE   C1A 6632   8.705   3.452   3.324 -0.1368 -0.1815 -0.0193
  630POPE   D2A 6633   8.700   3.668   3.718  0.1949 -0.0711 -0.0944
  630POPE   C3A 6634   8.583   3.702   4.163  0.1477 -0.5347  0.1103
  630POPE   C4A 6635   8.455   3.532   4.519  0.2771 -0.0043  0.4181
  630POPE   C1B 6636   9.056   3.442   3.031 -0.1587 -0.1517  0.1097
  630POPE   C2B 6637   9.403   3.774   3.057 -0.0215 -0.0260 -0.0946
  630POPE   C3B 6638   9.579   3.758   3.490 -0.3822  0.1826  0.1504
  630POPE   C4B 6639   9.579   3.927   3.940  0.2294 -0.1193 -0.0300
  631POPE   NH3 6640   3.906   9.876   2.672  0.2083 -0.2740  0.1344
  631POPE   PO4 6641   4.146   9.438   2.900 -0.0475 -0.0418  0.1146
  631POPE   GL1 6642   4.040   9.335   3.294  0.0038  0.0983  0.0461
  631POPE   GL2 6643   4.326   9.306   3.349  0.1429 -0.0730  0.2096
  631POPE   C1A 6644   4.002   9.338   3.712  0.1195 -0.1076 -0.0088
  631POPE   D2A 6645   4.065   9.124   4.079  0.1448  0.1804 -0.1481
  631POPE   C3A 6646   4.150   8.751   4.398  0.0598  0.0143 -0.1221
  631POPE   C4A 6647   4.237   8.430   4.647 -0.1067  0.1117  0.0230
  631POPE   C1B 6648   4.404   8.956   3.684  0.2228 -0.2074 -0.1058
  631POPE   C2B 6649   4.513   8.813   4.107 -0.0461 -0.3280 -0.0660
  631POPE   C3B 6650   4.617   8.765   4.545 -0.2176 -0.1061  0.3233
  631POPE   C4B 6651   4.596   8.656   4.923 -0.0514 -0.3018  0.0813
  632POPS   CNO 6652   3.429   6.442   2.198 -0.1666 -0.2524  0.0452
  632POPS   PO4 6653   3.428   6.325   2.637 -0.0848 -0.2275  0.1841
  632POPS   GL1 6654   3.558   6.326   3.054 -0.1701 -0.0877  0.1608
  632POPS   GL2 6655   3.764   6.564   3.177 -0.0166 -0.1388  0.2625
  632POPS   C1A 6656   3.727   6.026   3.314 -0.0801 -0.1466 -0.2000
  632POPS   D2A 6657   3.592   5.881   3.733  0.4728 -0.1981 -0.1725
  632POPS   C3A 6658   3.867   5.914   4.007 -0.0283 -0.2172 -0.0753
  632POPS   C4A 6659   3.987   6.289   4.429  0.1964  0.3477  0.2518
  632POPS   C1B 6660   3.614   6.474   3.529 -0.2847 -0.1179  0.0662
  632POPS   C2B 6661   3.703   6.418   3.946  0.3153 -0.2597  0.0513
  632POPS   C3B 6662   3.473   6.317   4.328  0.0220  0.2062 -0.0320
  632POPS   C4B 6663   3.383   5.899   4.585 -0.0355  0.2192 -0.1309
  633POPS   CNO 6664   4.356  11.077   2.199 -0.3467 -0.3874 -0.1421
  633POPS   PO4 6665   4.451  11.206   2.544  0.2142  0.3497  0.0863
  633POPS   GL1 6666   4.452  11.122   2.995  0.1617  0.0989  0.3860
  633POPS   GL2 6667   4.257  11.332   3.089  0.3176  0.4293 -0.0030
  633POPS   C1A 6668   4.641  10.910   3.301 -0.2629  0.1427  0.1952
  633POPS   D2A 6669   4.680  10.557   3.547  0.3315  0.1833 -0.0844
  633POPS   C3A 6670   4.657  10.562   3.976 -0.3149  0.3828  0.0365
  633POPS   C4A 6671   4.686  10.310   4.232 -0.1572 -0.1775  0.1920
  633POPS   C1B 6672   4.368  11.326   3.528  0.4043 -0.0929  0.2080
  633POPS   C2B 6673   4.301  11.285   3.941  0.2129 -0.0381 -0.1633
  633POPS   C3B 6674   4.287  11.333   4.258  0.5580  0.1187 -0.0590
  633POPS   C4B 6675   4.451  11.464   4.583  0.0368 -0.1554  0.2666
  634POPE   NH3 6676  12.985   9.091   2.727  0.1795  0.0062  0.2618
  634POPE   PO4 6677  12.637   8.718   2.714  0.1083  0.0751  0.2852
  634POPE   GL1 6678  12.565   8.323   2.978 -0.0122  0.2054 -0.1148
  634POPE   GL2 6679  12.792   8.290   3.075  0.1058  0.0990  0.0770
  634POPE   C1A 6680  12.474   8.084   3.388  0.2747  0.0574 -0.0960
  634POPE   D2A 6681  12.359   8.142   3.822  0.0447 -0.1249 -0.0536
  634POPE   C3A 6682  12.617   8.299   4.071  0.1354 -0.2661 -0.0565
  634POPE   C4A 6683  12.760   8.496   4.396 -0.1519 -0.0167 -0.2449
  634POPE   C1B 6684  12.629   8.579   3.397 -0.1336 -0.1358 -0.3198
  634POPE   C2B 6685  12.350   8.645   3.766 -0.1197 -0.0939  0.3654
  634POPE   C3B 6686  12.162   8.481   4.117 -0.2548  0.1076  0.2017
  634POPE   C4B 6687  11.737   8.475   4.387 -0.2130  0.1005  0.0411
  635POPS   CNO 6688   9.461  12.067   2.480 -0.0259  0.0453 -0.0064
  635POPS   PO4 6689   9.084  12.198   2.720  0.0199  0.3609  0.1347
  635POPS   GL1 6690   8.994  12.434   3.071 -0.0833 -0.0896 -0.1261
  635POPS   GL2 6691   8.704  12.456   3.119  0.0625  0.3341 -0.1050
  635POPS   C1A 6692   9.203  12.588   3.399 -0.1554 -0.0694 -0.0471
  635POPS   D2A 6693   9.078  12.525   3.834  0.0881 -0.1207  0.2132
  635POPS   C3A 6694   9.252  12.856   4.075  0.3836 -0.3910  0.0441
  635POPS   C4A 6695   9.129  12.954   4.418  0.0710 -0.2517 -0.2924
  635POPS   C1B 6696   8.807  12.261   3.494 -0.1352 -0.0175  0.1800
  635POPS   C2B 6697   8.789  12.116   3.854  0.1515  0.0778 -0.2623
  635POPS   C3B 6698   8.742  11.988   4.312 -0.6036 -0.0998 -0.2043
  635POPS   C4B 6699   8.637  11.947   4.673  0.0311  0.0563 -0.2420
  636POPC   NC3 6700  12.169   8.842   2.539  0.1655 -0.2303  0.2080
  636POPC   PO4 6701  11.709   8.705   2.500 -0.0914 -0.1048 -0.3206
  636POPC   GL1 6702  11.825   8.804   2.925 -0.0371 -0.2179  0.5641
  636POPC   GL2 6703  12.257   8.737   3.033  0.0813  0.3363  0.3233
  636POPC   C1A 6704  11.916   9.143   3.158 -0.2167 -0.1003 -0.1750
  636POPC   D2A 6705  11.768   9.526   3.468 -0.3410  0.3027 -0.0396
  636POPC   C3A 6706  11.799   9.430   3.877 -0.3590 -0.1248 -0.0271
  636POPC   C4A 6707  12.111   9.395   4.242  0.2541  0.0625  0.1773
  636POPC   C1B 6708  12.065   8.423   3.240  0.3171  0.3003  0.0434
  636POPC   C2B 6709  11.923   8.393   3.712  0.2333  0.0773  0.1242
  636POPC   C3B 6710  11.623   8.193   3.911 -0.3332 -0.0004 -0.2204
  636POPC   C4B 6711  11.294   8.259   4.200 -0.0797 -0.1301 -0.1827
  637CHOL   ROH 6712  10.026  11.543   3.089  0.3311  0.4405 -0.3751
  637CHOL    R1 6713  10.183  11.676   3.283  0.0706  0.3378 -0.0846
  637CHOL    R2 6714  10.078  11.769   3.522 -0.1706 -0.1488  0.0078
  637CHOL    R3 6715  10.279  11.620   3.630 -0.0497 -0.0762 -0.1129
  637CHOL    R4 6716  10.193  11.797   3.846 -0.0223 -0.1366 -0.0447
  637CHOL    R5 6717  10.396  11.772   3.772 -0.0451 -0.0382 -0.1522
  637CHOL    C1 6718  10.448  11.674   4.137  0.1774 -0.0613 -0.1886
  637CHOL    C2 6719  10.360  11.352   4.337  0.0968  0.2949 -0.4016
  638CHOL   ROH 6720   6.039  12.030   2.932 -0.0089  0.1340  0.2167
  638CHOL    R1 6721   6.086  12.161   3.178  0.0226  0.1876  0.1825
  638CHOL    R2 6722   5.892  12.190   3.372  0.0636  0.1779  0.2262
  638CHOL    R3 6723   6.079  12.073   3.531  0.1290  0.2467  0.2000
  638CHOL    R4 6724   5.949  12.273   3.702 -0.1105  0.0132  0.2998
  638CHOL    R5 6725   6.163  12.253   3.664 -0.0784  0.2399  0.3451
  638CHOL    C1 6726   6.158  12.212   4.044 -0.1505 -0.0182  0.3180
  638CHOL    C2 6727   6.066  12.239   4.299 -0.1399 -0.0736 -0.3785
  639POPC   NC3 6728   4.261   8.156   2.569  0.0236 -0.1621  0.1107
  639POPC   PO4 6729   4.063   8.482   2.793 -0.2997  0.1490  0.2977
  639POPC   GL1 6730   4.107   8.611   3.152  0.1048 -0.0479 -0.3227
  639POPC   GL2 6731   4.152   8.839   3.262 -0.0202 -0.2516  0.1643
  639POPC   C1A 6732   4.326   8.407   3.529  0.1640 -0.2288 -0.2924
  639POPC   D2A 6733   4.204   8.400   3.925 -0.0689 -0.0247 -0.0099
  639POPC   C3A 6734   4.417   8.157   4.220  0.0716  0.0595 -0.2439
  639POPC   C4A 6735   4.628   8.193   4.682  0.2099  0.2272 -0.5014
  639POPC   C1B 6736   3.938   8.772   3.649  0.1354  0.1686 -0.0690
  639POPC   C2B 6737   3.748   8.659   4.142  0.1767  0.3677 -0.3960
  639POPC   C3B 6738   3.724   8.390   4.482 -0.1744 -0.1261 -0.0843
  639POPC   C4B 6739   3.484   8.042   4.644 -0.3469  0.1666  0.0749
  640CHOL   ROH 6740   3.730   4.761   2.884 -0.1369  0.0911 -0.0691
  640CHOL    R1 6741   3.669   4.688   3.150 -0.0562  0.2063 -0.0176
  640CHOL    R2 6742   3.824   4.512   3.296 -0.1158  0.1219 -0.0502
  640CHOL    R3 6743   3.830   4.716   3.476  0.1345  0.1653 -0.1081
  640CHOL    R4 6744   3.919   4.481   3.627  0.0111  0.1344 -0.0862
  640CHOL    R5 6745   3.757   4.616   3.681  0.1481  0.2816 -0.0480
  640CHOL    C1 6746   3.979   4.654   3.988  0.3200  0.1824 -0.1616
  640CHOL    C2 6747   3.928   4.750   4.337 -0.0988 -0.1106  0.2761
  641POPE   NH3 6748   3.664   3.830   2.280 -0.1272 -0.0116  0.0473
  641POPE   PO4 6749   3.709   3.429   2.536  0.4787  0.0411 -0.4668
  641POPE   GL1 6750   3.765   3.657   2.959  0.0279  0.1457  0.0258
  641POPE   GL2 6751   3.926   3.838   2.721 -0.1013  0.1038  0.1486
  641POPE   C1A 6752   3.778   3.902   3.208 -0.1206  0.0215 -0.3144
  641POPE   D2A 6753   3.783   3.925   3.606 -0.1620 -0.1186 -0.1012
  641POPE   C3A 6754   3.616   4.131   3.933 -0.1156  0.3648 -0.0092
  641POPE   C4A 6755   3.663   4.353   4.293  0.1906 -0.0603  0.0990
  641POPE   C1B 6756   3.971   4.214   2.919 -0.1193 -0.0260  0.0694
  641POPE   C2B 6757   4.192   4.598   2.880  0.3049 -0.0208 -0.3515
  641POPE   C3B 6758   4.182   4.965   3.072  0.2931  0.0526  0.0045
  641POPE   C4B 6759   3.848   5.185   3.399  0.1017  0.0516  0.1658
  642POPS   CNO 6760   6.082   2.746   2.460  0.0109  0.0771  0.1006
  642POPS   PO4 6761   5.802   2.939   2.762  0.4362 -0.3188 -0.0725
  642POPS   GL1 6762   5.775   3.284   3.033 -0.4279  0.0616 -0.0861
  642POPS   GL2 6763   5.543   3.346   3.182 -0.1987  0.0502  0.2316
  642POPS   C1A 6764   5.806   3.775   3.110 -0.0713 -0.0086  0.1015
  642POPS   D2A 6765   5.733   3.920   3.587  0.1841  0.0513  0.4156
  642POPS   C3A 6766   5.676   3.686   3.951 -0.1785  0.0179 -0.3891
  642POPS   C4A 6767   5.599   3.882   4.377 -0.2038 -0.0068  0.0452
  642POPS   C1B 6768   5.870   3.381   3.517  0.0069 -0.0597 -0.1978
  642POPS   C2B 6769   5.936   3.276   3.960 -0.1051  0.2537 -0.1454
  642POPS   C3B 6770   5.882   3.446   4.420 -0.2049 -0.1903  0.0062
  642POPS   C4B 6771   6.236   3.499   4.473  0.0744 -0.0518 -0.0756
  643POPC   NC3 6772   4.134  12.542   2.645 -0.1099  0.0417  0.3025
  643POPC   PO4 6773   4.446  12.160   2.468  0.1926 -0.2972 -0.1453
  643POPC   GL1 6774   4.567  12.289   2.870  0.0028  0.2837  0.0576
  643POPC   GL2 6775   4.478  12.535   3.042  0.0944 -0.0967 -0.0552
  643POPC   C1A 6776   4.720  12.123   3.205 -0.1897 -0.1242 -0.3382
  643POPC   D2A 6777   4.925  12.183   3.681  0.0618 -0.2590  0.0359
  643POPC   C3A 6778   4.605  12.018   4.111 -0.2219  0.0421  0.3697
  643POPC   C4A 6779   4.296  12.001   4.373  0.0297  0.0012 -0.2596
  643POPC   C1B 6780   4.411  12.472   3.421 -0.0782 -0.1413  0.2383
  643POPC   C2B 6781   4.509  12.425   3.854 -0.0016 -0.0532 -0.2620
  643POPC   C3B 6782   4.958  12.406   4.098 -0.3724 -0.2652 -0.0358
  643POPC   C4B 6783   5.093  12.082   4.214 -0.1122 -0.0866  0.1841
  644CHOL   ROH 6784   3.331   5.032   2.885  0.0465 -0.0168 -0.1744
  644CHOL    R1 6785   3.421   5.058   3.152  0.0878 -0.0880 -0.1823
  644CHOL    R2 6786   3.250   5.107   3.363  0.1411  0.0144 -0.1683
  644CHOL    R3 6787   3.366   4.885   3.467  0.0054 -0.0657 -0.1827
  644CHOL    R4 6788   3.279   5.039   3.701  0.4227  0.1627 -0.1587
  644CHOL    R5 6789   3.479   4.963   3.663  0.3062 -0.0832 -0.3396
  644CHOL    C1 6790   3.404   4.791   3.995  0.4592  0.1740 -0.1666
  644CHOL    C2 6791   3.474   5.021   4.331  0.2532  0.1603  0.0094
  645POSM   NC3 6792  12.474   6.210   1.982 -0.3816  0.1824  0.0563
  645POSM   PO4 6793  12.059   6.101   2.106  0.1865 -0.0044 -0.0497
  645POSM   AM1 6794  12.020   6.253   2.610 -0.1160  0.2031  0.2983
  645POSM   AM2 6795  12.242   6.282   2.777  0.0191  0.1575 -0.3732
  645POSM   T1A 6796  11.875   6.154   3.021  0.0586  0.2406 -0.0783
  645POSM   C2A 6797  11.871   5.931   3.400 -0.0200  0.1041 -0.0213
  645POSM   C3A 6798  11.574   5.697   3.613 -0.0281  0.1419  0.0184
  645POSM   C1B 6799  12.275   6.268   3.287  0.0143  0.0599 -0.0235
  645POSM   D2B 6800  12.286   6.177   3.756 -0.0331 -0.0757 -0.0932
  645POSM   C3B 6801  12.478   6.036   4.098  0.4264  0.3603  0.3387
  645POSM   C4B 6802  12.851   5.850   4.343  0.3444 -0.0681 -0.0146
  646CHOL   ROH 6803  10.373   3.263   3.063  0.0102  0.0391  0.0006
  646CHOL    R1 6804  10.323   3.329   3.334  0.0159 -0.1605  0.0520
  646CHOL    R2 6805  10.468   3.219   3.542  0.3415  0.0348 -0.0611
  646CHOL    R3 6806  10.510   3.479   3.608 -0.1332  0.1017  0.0112
  646CHOL    R4 6807  10.461   3.345   3.864  0.3454 -0.1095 -0.0039
  646CHOL    R5 6808  10.357   3.520   3.788 -0.0773 -0.2831  0.1512
  646CHOL    C1 6809  10.497   3.663   4.113 -0.0980 -0.1307  0.0973
  646CHOL    C2 6810  10.548   4.035   4.248  0.0848 -0.1307 -0.0955
  647POPS   CNO 6811  12.389   5.467   2.661 -0.3629 -0.1813  0.2632
  647POPS   PO4 6812  12.861   5.707   2.741  0.1562  0.1592 -0.0078
  647POPS   GL1 6813  12.555   5.770   3.050  0.2606  0.1261 -0.1533
  647POPS   GL2 6814  12.164   5.763   3.008  0.0237 -0.2286  0.3253
  647POPS   C1A 6815  12.378   5.802   3.452 -0.2275 -0.0220 -0.1034
  647POPS   D2A 6816  12.087   5.599   3.752 -0.1007  0.1635  0.0567
  647POPS   C3A 6817  12.147   5.671   4.139  0.1042  0.0028  0.1398
  647POPS   C4A 6818  12.027   5.943   4.462  0.1580 -0.1512  0.0278
  647POPS   C1B 6819  12.209   5.366   3.265 -0.1566  0.1774 -0.1759
  647POPS   C2B 6820  12.337   5.127   3.607  0.0362 -0.0186  0.0817
  647POPS   C3B 6821  12.148   5.096   3.900  0.1788  0.0652  0.1423
  647POPS   C4B 6822  11.960   4.997   4.259  0.1698  0.0029 -0.3503
  648POPC   NC3 6823   8.098   1.907   2.197  0.1307 -0.0737 -0.1808
  648POPC   PO4 6824   8.044   2.477   2.346  0.2080  0.0760 -0.2496
  648POPC   GL1 6825   7.996   2.671   2.692 -0.1764  0.1476 -0.1557
  648POPC   GL2 6826   7.811   2.807   2.825 -0.2753  0.1608  0.0777
  648POPC   C1A 6827   8.095   2.543   3.092  0.1341 -0.1319  0.0404
  648POPC   D2A 6828   8.113   2.486   3.518 -0.0281  0.0259  0.2729
  648POPC   C3A 6829   7.906   2.259   3.827  0.0235  0.1051 -0.0673
  648POPC   C4A 6830   7.673   1.965   3.944  0.2980 -0.4682 -0.2581
  648POPC   C1B 6831   7.738   2.823   3.323  0.3533 -0.0585  0.0793
  648POPC   C2B 6832   7.817   2.812   3.833 -0.1960 -0.4563  0.0005
  648POPC   C3B 6833   7.879   2.970   4.247 -0.2049 -0.2872 -0.1456
  648POPC   C4B 6834   8.176   3.050   4.612  0.2342 -0.0084  0.0964
  649CHOL   ROH 6835   8.301   3.041   2.880  0.0647 -0.1604 -0.0730
  649CHOL    R1 6836   8.166   3.045   3.129 -0.0360  0.1755 -0.1299
  649CHOL    R2 6837   8.275   2.936   3.358 -0.4044 -0.1199 -0.0931
  649CHOL    R3 6838   8.226   3.183   3.460  0.1863  0.0147 -0.0966
  649CHOL    R4 6839   8.290   3.017   3.694 -0.5232 -0.2546 -0.0533
  649CHOL    R5 6840   8.112   3.140   3.666 -0.1670  0.2734 -0.2188
  649CHOL    C1 6841   8.253   3.296   3.985 -0.0378 -0.2066 -0.0334
  649CHOL    C2 6842   8.438   3.019   4.227  0.0060 -0.1836  0.2390
  650CHOL   ROH 6843   5.324   4.535   2.847 -0.1314  0.0916 -0.0096
  650CHOL    R1 6844   5.113   4.480   3.028 -0.1423  0.2155  0.0175
  650CHOL    R2 6845   5.075   4.230   3.139 -0.3309  0.2103 -0.0484
  650CHOL    R3 6846   5.083   4.369   3.373 -0.1619  0.1366 -0.0099
  650CHOL    R4 6847   4.841   4.205   3.392 -0.3631  0.4257 -0.0561
  650CHOL    R5 6848   4.854   4.421   3.419 -0.0998  0.4035  0.0032
  650CHOL    C1 6849   4.712   4.321   3.759 -0.2232  0.4820 -0.0244
  650CHOL    C2 6850   4.497   4.493   3.986 -0.1122  0.1113 -0.3483
  651POPE   NH3 6851  13.371   6.299   2.655  0.0416  0.1514 -0.2421
  651POPE   PO4 6852  13.057   6.161   2.552  0.3882  0.0513  0.0404
  651POPE   GL1 6853  12.866   6.158   2.926 -0.0087  0.1467  0.5082
  651POPE   GL2 6854  12.660   6.421   3.033 -0.1931 -0.0197 -0.1768
  651POPE   C1A 6855  13.154   6.316   3.353 -0.1671 -0.1817 -0.0216
  651POPE   D2A 6856  13.111   6.588   3.783 -0.1700  0.0846 -0.0968
  651POPE   C3A 6857  13.206   6.436   4.154  0.4703 -0.0295 -0.0504
  651POPE   C4A 6858  12.886   6.325   4.205  0.2061  0.2250  0.0882
  651POPE   C1B 6859  12.687   6.591   3.321  0.1890  0.5108 -0.3858
  651POPE   C2B 6860  12.556   6.677   3.783  0.2349 -0.1398 -0.2489
  651POPE   C3B 6861  12.611   6.796   4.219  0.0125 -0.2799 -0.0806
  651POPE   C4B 6862  12.928   6.792   4.518 -0.0260  0.3450 -0.1853
  652POPE   NH3 6863   7.450  13.553   2.396  0.0520  0.1507 -0.0350
  652POPE   PO4 6864   7.737  13.157   2.523 -0.0601  0.0702  0.2795
  652POPE   GL1 6865   7.499  13.164   2.920  0.1704  0.0443 -0.0760
  652POPE   GL2 6866   7.743  12.945   2.990 -0.1258  0.0819 -0.1185
  652POPE   C1A 6867   7.275  13.214   3.179 -0.1675  0.2991 -0.6123
  652POPE   D2A 6868   7.170  13.254   3.662 -0.0367  0.2108  0.0818
  652POPE   C3A 6869   7.250  13.420   4.044 -0.0164  0.1400 -0.0832
  652POPE   C4A 6870   7.514  13.300   4.260  0.2317  0.0313 -0.1500
  652POPE   C1B 6871   7.634  12.954   3.366 -0.1008 -0.0035 -0.2624
  652POPE   C2B 6872   7.621  12.910   3.788  0.0128 -0.3654  0.0891
  652POPE   C3B 6873   7.691  12.855   4.171  0.1168  0.1693 -0.1124
  652POPE   C4B 6874   7.708  13.058   4.603  0.0213 -0.2333 -0.3475
  653POPE   NH3 6875  12.327   9.623   2.546 -0.2696 -0.1404  0.0773
  653POPE   PO4 6876  12.813   9.597   2.654  0.1471 -0.2374 -0.2378
  653POPE   GL1 6877  12.922   9.575   3.032 -0.1192  0.0588  0.2093
  653POPE   GL2 6878  13.146   9.284   3.148 -0.1046 -0.0435  0.3086
  653POPE   C1A 6879  12.813   9.531   3.492 -0.0432  0.0001 -0.1597
  653POPE   D2A 6880  12.686   9.473   3.874 -0.5085 -0.2072 -0.1837
  653POPE   C3A 6881  12.673   9.728   4.276  0.4149  0.3617  0.1249
  653POPE   C4A 6882  13.004   9.977   4.427  0.0313  0.3160  0.0969
  653POPE   C1B 6883  13.222   9.204   3.614  0.2453  0.1638 -0.2201
  653POPE   C2B 6884  13.061   9.246   4.101  0.1413  0.1983  0.3029
  653POPE   C3B 6885  13.325   9.566   4.376 -0.0579 -0.1692  0.1534
  653POPE   C4B 6886  13.488   9.896   4.530 -0.1356 -0.1477  0.0715
  654POPE   NH3 6887   2.729   7.984   2.882  0.1325  0.1770  0.1888
  654POPE   PO4 6888   2.584   7.580   2.955 -0.0053  0.1906 -0.0716
  654POPE   GL1 6889   2.721   7.357   3.334 -0.3662  0.0374  0.0294
  654POPE   GL2 6890   3.137   7.522   3.372  0.0905 -0.1168 -0.0172
  654POPE   C1A 6891   2.891   7.129   3.648 -0.3492  0.0305 -0.2413
  654POPE   D2A 6892   2.661   6.961   3.986 -0.1194  0.1566 -0.2070
  654POPE   C3A 6893   2.333   7.246   4.218  0.1492 -0.1106  0.0885
  654POPE   C4A 6894   1.921   7.064   4.180  0.0023  0.0885 -0.4441
  654POPE   C1B 6895   3.083   7.571   3.759  0.2534  0.0387 -0.0757
  654POPE   C2B 6896   2.866   7.509   4.056  0.1806 -0.0223 -0.1149
  654POPE   C3B 6897   2.713   7.481   4.447  0.3502  0.0469 -0.0291
  654POPE   C4B 6898   2.396   7.707   4.721 -0.3188 -0.0239  0.1351
  655POPE   NH3 6899   5.818   3.463   2.516  0.1759 -0.1134 -0.4557
  655POPE   PO4 6900   6.171   3.797   2.584 -0.0258 -0.5063  0.0304
  655POPE   GL1 6901   6.274   3.785   2.960 -0.2988 -0.1862  0.0549
  655POPE   GL2 6902   6.575   3.797   3.101 -0.1647 -0.0852 -0.1505
  655POPE   C1A 6903   6.177   3.752   3.510  0.4342  0.1628  0.1074
  655POPE   D2A 6904   6.281   3.652   3.873 -0.0007  0.1044 -0.2742
  655POPE   C3A 6905   6.661   3.566   4.113  0.0683 -0.2516 -0.2832
  655POPE   C4A 6906   6.821   3.402   4.499 -0.2888 -0.1655  0.4242
  655POPE   C1B 6907   6.763   3.767   3.496  0.2600 -0.1636 -0.2683
  655POPE   C2B 6908   6.962   3.874   3.863 -0.1593  0.2124  0.0381
  655POPE   C3B 6909   7.066   3.949   4.231 -0.0274  0.0554 -0.2316
  655POPE   C4B 6910   7.088   3.904   4.564  0.0740 -0.1283  0.4045
  656CHOL   ROH 6911   7.838  13.514   2.937 -0.0328  0.0837 -0.0162
  656CHOL    R1 6912   7.738  13.621   3.179 -0.0062 -0.1080  0.0828
  656CHOL    R2 6913   7.663  13.463   3.392  0.2069 -0.2708  0.0456
  656CHOL    R3 6914   7.835  13.621   3.529  0.1538 -0.2073  0.0379
  656CHOL    R4 6915   7.682  13.480   3.736  0.0867 -0.1088  0.0450
  656CHOL    R5 6916   7.709  13.696   3.719  0.0898 -0.1212 -0.0424
  656CHOL    C1 6917   7.856  13.639   4.066 -0.0331  0.0451  0.0374
  656CHOL    C2 6918   7.794  13.746   4.548  0.1337  0.0894 -0.0828
  657POPE   NH3 6919   6.378  12.580   2.361 -0.4969 -0.0115  0.2788
  657POPE   PO4 6920   6.756  12.876   2.468  0.1201  0.1071  0.1972
  657POPE   GL1 6921   6.930  12.827   2.896 -0.1893  0.2621 -0.1681
  657POPE   GL2 6922   6.867  13.215   2.969 -0.2900 -0.1617  0.1767
  657POPE   C1A 6923   7.158  12.690   3.387 -0.1310 -0.2212  0.1553
  657POPE   D2A 6924   7.065  12.610   3.776  0.3123  0.2958 -0.0328
  657POPE   C3A 6925   7.233  12.904   4.083  0.2827  0.3732  0.3384
  657POPE   C4A 6926   7.142  13.081   4.525 -0.2934  0.3421  0.0896
  657POPE   C1B 6927   6.892  13.522   3.297  0.0276 -0.2405 -0.3551
  657POPE   C2B 6928   6.856  13.590   3.713 -0.0474  0.3337  0.0405
  657POPE   C3B 6929   6.557  13.714   4.085  0.3062 -0.2125  0.0097
  657POPE   C4B 6930   6.363  13.766   4.521  0.0340  0.0007 -0.0079
  658POPC   NC3 6931  11.557   4.975   2.124 -0.1735  0.0227  0.0695
  658POPC   PO4 6932  11.842   4.641   2.273  0.0935  0.0293  0.0392
  658POPC   GL1 6933  11.718   4.632   2.780 -0.3099 -0.0377 -0.3657
  658POPC   GL2 6934  11.536   4.867   2.938  0.0502 -0.2509  0.2446
  658POPC   C1A 6935  11.869   4.325   3.086 -0.0539 -0.0637 -0.1685
  658POPC   D2A 6936  12.187   4.170   3.226 -0.2099 -0.1594  0.0151
  658POPC   C3A 6937  12.287   4.068   3.654 -0.1315 -0.2512 -0.3855
  658POPC   C4A 6938  12.294   4.281   3.998 -0.0627  0.4416 -0.0499
  658POPC   C1B 6939  11.482   4.705   3.353 -0.0837  0.0864 -0.1667
  658POPC   C2B 6940  11.230   4.543   3.781 -0.0020  0.2770  0.3104
  658POPC   C3B 6941  10.918   4.665   3.892  0.1445 -0.0812  0.5340
  658POPC   C4B 6942  10.501   4.657   3.846  0.1709  0.1203 -0.2035
  659POPC   NC3 6943  10.725  12.927   2.533 -0.1434  0.0201 -0.0511
  659POPC   PO4 6944  10.633  13.123   2.806  0.0163 -0.0346 -0.0436
  659POPC   GL1 6945  10.289  13.043   3.014 -0.1414  0.2088 -0.3055
  659POPC   GL2 6946  10.004  13.236   2.882  0.2029  0.0212  0.3240
  659POPC   C1A 6947  10.129  13.044   3.376  0.1235 -0.0330 -0.3272
  659POPC   D2A 6948  10.082  13.156   3.873 -0.2352  0.1762 -0.0567
  659POPC   C3A 6949  10.145  13.139   4.339 -0.1954  0.1429  0.3600
  659POPC   C4A 6950  10.277  13.195   4.737 -0.0809  0.1377  0.1710
  659POPC   C1B 6951   9.720  13.362   3.178 -0.2540  0.2162 -0.0825
  659POPC   C2B 6952   9.628  13.448   3.532 -0.0935 -0.2199  0.1118
  659POPC   C3B 6953   9.442  13.730   3.899  0.0326  0.2753  0.0524
  659POPC   C4B 6954   9.464  13.752   4.373  0.2838  0.1363  0.1204
  660CHOL   ROH 6955   9.258   2.983   3.115  0.1910  0.1841 -0.1962
  660CHOL    R1 6956   9.356   3.159   3.314  0.0520  0.2356 -0.1722
  660CHOL    R2 6957   9.189   3.304   3.480 -0.0644 -0.0282 -0.0571
  660CHOL    R3 6958   9.336   3.186   3.676  0.1581  0.0817 -0.1536
  660CHOL    R4 6959   9.265   3.448   3.785 -0.2102 -0.0718  0.0011
  660CHOL    R5 6960   9.465   3.364   3.769 -0.0828  0.2302 -0.0915
  660CHOL    C1 6961   9.447   3.421   4.146 -0.0862  0.0059 -0.0555
  660CHOL    C2 6962   9.576   3.578   4.464  0.0594 -0.2116 -0.0582
  661POPC   NC3 6963   1.901   5.880   2.252 -0.2197  0.1295  0.1055
  661POPC   PO4 6964   1.974   6.321   2.323 -0.2522  0.5810 -0.1325
  661POPC   GL1 6965   2.145   6.213   2.668 -0.3651 -0.0301 -0.4276
  661POPC   GL2 6966   2.221   5.886   2.681  0.0369  0.2484  0.1082
  661POPC   C1A 6967   2.247   6.423   3.094  0.3641  0.0158  0.2877
  661POPC   D2A 6968   2.288   6.292   3.427 -0.0170 -0.0084 -0.2416
  661POPC   C3A 6969   2.595   6.406   3.812  0.0630 -0.0554  0.0155
  661POPC   C4A 6970   2.779   6.490   4.149 -0.1311  0.0835  0.2326
  661POPC   C1B 6971   2.033   5.820   3.096 -0.2895  0.0501 -0.1263
  661POPC   C2B 6972   2.213   5.610   3.353 -0.3485 -0.1487 -0.0283
  661POPC   C3B 6973   2.312   5.612   3.866 -0.2658  0.0034  0.2539
  661POPC   C4B 6974   2.535   5.525   4.205  0.0915  0.0396  0.2465
  662POPE   NH3 6975  11.586  11.209   2.259  0.1107  0.1937  0.1615
  662POPE   PO4 6976  11.792  10.818   2.345  0.1245 -0.3170  0.1874
  662POPE   GL1 6977  11.814  10.736   2.715 -0.0655  0.1404  0.3222
  662POPE   GL2 6978  11.961  10.487   2.848 -0.2001 -0.5836 -0.0363
  662POPE   C1A 6979  11.791  10.866   3.214  0.2882 -0.1897  0.1254
  662POPE   D2A 6980  11.780  10.678   3.682 -0.3538 -0.2468  0.0940
  662POPE   C3A 6981  11.469  10.633   3.979 -0.3602 -0.2059  0.1234
  662POPE   C4A 6982  11.314  10.670   4.418 -0.1097  0.2661  0.0238
  662POPE   C1B 6983  12.097  10.411   3.160 -0.2067 -0.0137  0.4376
  662POPE   C2B 6984  12.146  10.364   3.630 -0.1897  0.1422 -0.1313
  662POPE   C3B 6985  12.089  10.591   4.031  0.1188 -0.0873 -0.0981
  662POPE   C4B 6986  11.851  10.634   4.372 -0.2495 -0.1800 -0.0927
  663CHOL   ROH 6987  13.220   8.163   3.252  0.0061 -0.2199  0.1316
  663CHOL    R1 6988  13.151   8.385   3.413  0.0069 -0.1577  0.0455
  663CHOL    R2 6989  13.017   8.358   3.653  0.0502 -0.0688  0.0735
  663CHOL    R3 6990  13.227   8.500   3.750  0.0456  0.0016 -0.0154
  663CHOL    R4 6991  13.018   8.530   3.953  0.2145 -0.3315  0.2290
  663CHOL    R5 6992  13.127   8.691   3.855  0.0005 -0.1588  0.2534
  663CHOL    C1 6993  13.216   8.764   4.218  0.3058 -0.4184  0.2361
  663CHOL    C2 6994  12.910   8.963   4.524 -0.3228 -0.0501 -0.1328
  664POSM   NC3 6995  10.789  11.520   2.572  0.1247  0.2392 -0.0208
  664POSM   PO4 6996  11.103  11.454   2.400  0.1178  0.0972 -0.0477
  664POSM   AM1 6997  11.179  11.298   2.756 -0.1493 -0.0519  0.1658
  664POSM   AM2 6998  11.035  11.349   3.055 -0.0881 -0.1677 -0.0358
  664POSM   T1A 6999  11.301  10.933   3.096  0.0728 -0.3030  0.1395
  664POSM   C2A 7000  11.281  10.888   3.595  0.1861  0.2615  0.2280
  664POSM   C3A 7001  11.316  11.152   3.946 -0.0886 -0.1778  0.2709
  664POSM   C1B 7002  11.128  11.371   3.499 -0.1507  0.0276  0.1559
  664POSM   D2B 7003  10.812  11.388   3.987  0.2108 -0.0930  0.1409
  664POSM   C3B 7004  11.001  11.555   4.345  0.2499 -0.3232  0.1940
  664POSM   C4B 7005  11.415  11.708   4.562 -0.0794 -0.0651  0.4635
  665CHOL   ROH 7006   5.099  12.648   2.803  0.0843  0.0435 -0.0663
  665CHOL    R1 7007   4.958  12.610   3.045  0.0141  0.1042 -0.0984
  665CHOL    R2 7008   5.086  12.561   3.285 -0.0666 -0.0643 -0.0961
  665CHOL    R3 7009   4.941  12.775   3.370  0.1019  0.0379 -0.0576
  665CHOL    R4 7010   5.059  12.662   3.614 -0.3231 -0.3775 -0.0146
  665CHOL    R5 7011   4.848  12.703   3.579 -0.2424 -0.0704 -0.2332
  665CHOL    C1 7012   4.908  12.921   3.886 -0.3142 -0.4641  0.0690
  665CHOL    C2 7013   4.706  12.800   4.144  0.1752  0.0309  0.0918
  666CHOL   ROH 7014   9.524  12.868   3.186 -0.1304 -0.1093  0.0812
  666CHOL    R1 7015   9.655  12.765   3.415 -0.0853 -0.0384  0.0877
  666CHOL    R2 7016   9.704  12.918   3.639 -0.0082  0.0422  0.0160
  666CHOL    R3 7017   9.574  12.716   3.766 -0.0026  0.1075  0.1279
  666CHOL    R4 7018   9.736  12.843   3.975  0.1638  0.0889  0.0115
  666CHOL    R5 7019   9.734  12.631   3.923  0.0616  0.0796  0.0488
  666CHOL    C1 7020   9.632  12.609   4.290  0.2693  0.1775  0.1139
  666CHOL    C2 7021   9.439  12.581   4.578 -0.2202 -0.2305 -0.4278
  667POSM   NC3 7022   5.046   3.878   2.218 -0.2113 -0.1215  0.1444
  667POSM   PO4 7023   5.427   3.802   2.387 -0.1842  0.1004  0.0614
  667POSM   AM1 7024   5.353   3.746   2.852  0.0447  0.2037  0.2606
  667POSM   AM2 7025   5.047   3.684   2.911  0.3750 -0.1320 -0.5230
  667POSM   T1A 7026   5.359   3.822   3.262  0.1966 -0.0682 -0.0101
  667POSM   C2A 7027   5.245   3.889   3.581 -0.1260 -0.1767  0.0667
  667POSM   C3A 7028   5.179   3.892   4.046 -0.1632 -0.0345  0.1500
  667POSM   C1B 7029   4.765   3.726   3.222  0.0080 -0.0033 -0.2175
  667POSM   D2B 7030   4.439   3.929   3.469  0.2754  0.0836  0.0826
  667POSM   C3B 7031   4.286   4.218   3.449 -0.0354  0.2431  0.3493
  667POSM   C4B 7032   4.349   4.599   3.387 -0.1738 -0.0423 -0.1336
  668CHOL   ROH 7033   4.138  10.700   3.107 -0.0368  0.0190  0.0128
  668CHOL    R1 7034   4.192  10.788   3.371 -0.1881  0.1334  0.0066
  668CHOL    R2 7035   4.001  10.786   3.570 -0.1853 -0.2038  0.0094
  668CHOL    R3 7036   4.188  10.642   3.704  0.0860  0.1397  0.0153
  668CHOL    R4 7037   3.991  10.717   3.908 -0.2026 -0.4205 -0.0333
  668CHOL    R5 7038   4.207  10.752   3.916 -0.2714  0.0689  0.0928
  668CHOL    C1 7039   4.162  10.542   4.232  0.0420 -0.2242 -0.0526
  668CHOL    C2 7040   4.382  10.762   4.396 -0.0466  0.1865  0.0004
  669POSM   NC3 7041   4.178   9.095   2.476  0.2721  0.2208  0.1518
  669POSM   PO4 7042   3.812   9.389   2.513 -0.0058  0.1265  0.2070
  669POSM   AM1 7043   3.642   9.525   2.895  0.3183  0.2500 -0.3599
  669POSM   AM2 7044   3.326   9.380   3.061 -0.0863 -0.0203  0.0358
  669POSM   T1A 7045   3.646   9.654   3.383 -0.4337 -0.0955  0.4253
  669POSM   C2A 7046   3.554   9.776   3.724 -0.2342  0.1391 -0.1185
  669POSM   C3A 7047   3.345   9.945   4.086  0.0569 -0.1434 -0.3450
  669POSM   C1B 7048   3.268   9.370   3.502  0.0123  0.0822 -0.0884
  669POSM   D2B 7049   3.188   9.443   3.979 -0.0574  0.0839  0.1720
  669POSM   C3B 7050   3.242   9.110   4.413  0.1592  0.1148 -0.0727
  669POSM   C4B 7051   3.470   8.785   4.499  0.2134 -0.2904 -0.1248
  670POSM   NC3 7052   5.394  12.729   2.305  0.2157  0.0756 -0.3857
  670POSM   PO4 7053   5.831  12.794   2.368 -0.0735  0.3667  0.1496
  670POSM   AM1 7054   6.102  12.832   2.806  0.0733  0.0490  0.0242
  670POSM   AM2 7055   6.343  12.967   2.712 -0.0538 -0.0333  0.0766
  670POSM   T1A 7056   6.080  12.727   3.265 -0.0604  0.0057  0.2044
  670POSM   C2A 7057   6.140  12.722   3.606  0.1260 -0.2604 -0.1770
  670POSM   C3A 7058   5.961  12.778   4.088 -0.3331 -0.0312 -0.1779
  670POSM   C1B 7059   6.509  12.942   3.125 -0.0023  0.1154 -0.2375
  670POSM   D2B 7060   6.807  13.031   3.407 -0.1238  0.0316 -0.0623
  670POSM   C3B 7061   6.738  13.048   3.858 -0.0504  0.0253  0.0954
  670POSM   C4B 7062   6.806  13.252   4.258  0.0089  0.2847  0.0910
  671CHOL   ROH 7063   5.453   2.303   3.069  0.0131 -0.0660  0.0319
  671CHOL    R1 7064   5.628   2.255   3.287 -0.0108 -0.2279  0.0171
  671CHOL    R2 7065   5.680   2.445   3.480  0.2477 -0.2431 -0.0313
  671CHOL    R3 7066   5.601   2.247   3.649  0.0306 -0.1138  0.0226
  671CHOL    R4 7067   5.675   2.470   3.825  0.2084 -0.1236 -0.0404
  671CHOL    R5 7068   5.751   2.266   3.836  0.0149 -0.1917  0.0431
  671CHOL    C1 7069   5.600   2.298   4.184 -0.0183  0.0673  0.0050
  671CHOL    C2 7070   5.738   2.456   4.397 -0.1260  0.1708 -0.5067
  672CHOL   ROH 7071  12.475   9.966   2.866 -0.2455  0.0291 -0.0210
  672CHOL    R1 7072  12.523   9.883   3.133  0.1395  0.0554 -0.0789
  672CHOL    R2 7073  12.691  10.021   3.303 -0.0695  0.4178 -0.1525
  672CHOL    R3 7074  12.473  10.021   3.466  0.0265 -0.1640 -0.0006
  672CHOL    R4 7075  12.698  10.080   3.644  0.0143  0.3668 -0.1451
  672CHOL    R5 7076  12.551   9.922   3.670  0.4193 -0.0198 -0.0730
  672CHOL    C1 7077  12.498  10.115   3.995  0.1532 -0.2091  0.0018
  672CHOL    C2 7078  12.308  10.046   4.401 -0.1482 -0.1737 -0.1739
  673POPC   NC3 7079  11.486  12.263   2.591  0.0478  0.4966  0.1345
  673POPC   PO4 7080  11.077  11.978   2.587 -0.0598 -0.0302  0.1966
  673POPC   GL1 7081  11.023  11.789   2.858  0.1631  0.4085  0.1284
  673POPC   GL2 7082  10.744  11.856   3.023 -0.1944  0.0287  0.2978
  673POPC   C1A 7083  11.275  11.751   3.218  0.2148 -0.0288  0.0255
  673POPC   D2A 7084  11.576  11.342   3.237  0.0733 -0.3536  0.1192
  673POPC   C3A 7085  11.724  11.155   3.672 -0.0834 -0.0892  0.0727
  673POPC   C4A 7086  11.781  11.060   4.121 -0.1021  0.0772 -0.4670
  673POPC   C1B 7087  10.710  11.668   3.377  0.1666  0.1667 -0.2949
  673POPC   C2B 7088  10.642  11.215   3.515 -0.2757 -0.2521  0.2210
  673POPC   C3B 7089  10.771  10.865   3.354  0.0500  0.1140  0.0560
  673POPC   C4B 7090  10.950  10.553   3.239 -0.0909 -0.0520 -0.0129
  674POSM   NC3 7091  11.248   4.213   1.733  0.2687  0.0924 -0.0518
  674POSM   PO4 7092  11.324   4.030   2.231 -0.0155 -0.3027  0.0862
  674POSM   AM1 7093  11.244   4.221   2.647 -0.1224  0.2148  0.0910
  674POSM   AM2 7094  11.012   4.363   2.616  0.2345  0.0800  0.1409
  674POSM   T1A 7095  11.380   4.233   3.079 -0.0961  0.0693 -0.3554
  674POSM   C2A 7096  11.496   4.229   3.493 -0.1943 -0.2499  0.0006
  674POSM   C3A 7097  11.740   4.178   3.884  0.2314 -0.0611  0.0319
  674POSM   C1B 7098  11.066   4.651   2.981 -0.0821  0.2450  0.2282
  674POSM   D2B 7099  10.928   4.787   3.404  0.0710 -0.3153  0.0889
  674POSM   C3B 7100  10.671   5.041   3.551  0.0241  0.1993  0.1107
  674POSM   C4B 7101  10.716   5.287   3.892  0.0923  0.2867  0.0016
  675POSM   NC3 7102   3.534   8.435   2.423  0.2569 -0.3598 -0.2064
  675POSM   PO4 7103   3.594   8.495   2.826  0.2765  0.0122 -0.2532
  675POSM   AM1 7104   3.583   8.710   3.298 -0.3328  0.1572  0.0166
  675POSM   AM2 7105   3.543   9.038   3.345  0.0419 -0.2115 -0.0147
  675POSM   T1A 7106   3.453   8.493   3.718  0.1606  0.1372  0.0539
  675POSM   C2A 7107   3.322   8.415   4.167 -0.2364 -0.2091 -0.0519
  675POSM   C3A 7108   3.078   8.113   4.207 -0.5613  0.0496 -0.3551
  675POSM   C1B 7109   3.597   9.065   3.823  0.2727 -0.0238  0.0116
  675POSM   D2B 7110   3.713   9.438   4.126  0.1017 -0.1050  0.0134
  675POSM   C3B 7111   3.767   9.231   4.578  0.2318 -0.0024  0.0981
  675POSM   C4B 7112   3.527   9.107   4.893 -0.0030  0.1055  0.3050
  676CHOL   ROH 7113  10.229   2.733   3.355 -0.2568 -0.0464 -0.0536
  676CHOL    R1 7114  10.223   2.862   3.607 -0.4011 -0.0373 -0.0610
  676CHOL    R2 7115  10.084   2.759   3.824  0.0335 -0.3901  0.0406
  676CHOL    R3 7116  10.325   2.782   3.947  0.0783  0.2602 -0.1241
  676CHOL    R4 7117  10.130   2.779   4.165  0.1896 -0.4980  0.0298
  676CHOL    R5 7118  10.284   2.929   4.131 -0.2671  0.0266  0.0173
  676CHOL    C1 7119  10.383   2.813   4.481  0.3227  0.0496 -0.1310
  676CHOL    C2 7120  10.736   2.889   4.704 -0.0510 -0.1050 -0.0739
  677POPC   NC3 7121   3.636  10.325   2.472 -0.3152 -0.0296 -0.0247
  677POPC   PO4 7122   3.631  10.525   2.806 -0.3392 -0.2028 -0.2841
  677POPC   GL1 7123   3.637  10.645   3.204  0.0603 -0.5287 -0.2054
  677POPC   GL2 7124   3.422  10.956   3.088 -0.0603  0.2887  0.2314
  677POPC   C1A 7125   3.526  10.865   3.578 -0.0669  0.0832 -0.2748
  677POPC   D2A 7126   3.505  10.937   4.043  0.1370 -0.1970  0.2940
  677POPC   C3A 7127   3.631  10.552   4.227  0.0238  0.1878 -0.0288
  677POPC   C4A 7128   3.816  10.659   4.707 -0.3632 -0.0113  0.1066
  677POPC   C1B 7129   3.755  11.258   3.309  0.5053 -0.0756  0.1154
  677POPC   C2B 7130   3.850  11.308   3.620 -0.0552  0.0513 -0.0754
  677POPC   C3B 7131   3.813  11.260   3.990  0.2394 -0.1010 -0.0406
  677POPC   C4B 7132   3.885  10.991   4.352 -0.2758  0.2299 -0.1642
  678POPS   CNO 7133   3.812   7.261   2.771  0.0125 -0.0495 -0.0829
  678POPS   PO4 7134   3.391   7.498   2.940  0.0745  0.0431  0.0627
  678POPS   GL1 7135   3.418   7.059   3.071 -0.2053  0.0087  0.0364
  678POPS   GL2 7136   3.631   7.160   3.271 -0.0078  0.2140  0.0258
  678POPS   C1A 7137   3.244   6.751   3.323 -0.3256  0.0344 -0.4527
  678POPS   D2A 7138   2.978   6.652   3.685 -0.0055 -0.0233  0.1201
  678POPS   C3A 7139   3.256   6.652   4.056  0.0882  0.0225  0.2741
  678POPS   C4A 7140   3.238   6.665   4.586  0.3532 -0.0297  0.0223
  678POPS   C1B 7141   3.394   7.044   3.731  0.4610  0.1941  0.3164
  678POPS   C2B 7142   3.160   7.108   4.124 -0.0210 -0.2654 -0.0331
  678POPS   C3B 7143   2.899   7.019   4.502  0.1069 -0.0236  0.1242
  678POPS   C4B 7144   2.547   6.835   4.440  0.1716 -0.0666  0.1421
  679POPE   NH3 7145  12.880   8.197   2.554  0.0835 -0.3538  0.0979
  679POPE   PO4 7146  13.287   8.226   2.804  0.2246  0.2038  0.0836
  679POPE   GL1 7147  13.665   8.210   3.019 -0.1655 -0.0896 -0.1469
  679POPE   GL2 7148  13.690   8.464   3.079  0.1561 -0.2008  0.1198
  679POPE   C1A 7149  13.803   8.000   3.352  0.2224 -0.2621  0.0042
  679POPE   D2A 7150  13.811   7.754   3.682  0.1764 -0.2389 -0.1415
  679POPE   C3A 7151  13.780   8.002   4.061 -0.3563 -0.0106  0.1181
  679POPE   C4A 7152  13.474   8.329   4.221  0.0174  0.1626  0.1731
  679POPE   C1B 7153  13.969   8.704   3.388 -0.0766 -0.1278  0.1144
  679POPE   C2B 7154  14.049   8.763   3.825 -0.1904 -0.0676 -0.1521
  679POPE   C3B 7155  13.910   8.574   4.327  0.1314 -0.0424  0.3587
  679POPE   C4B 7156  13.687   8.379   4.675  0.2705  0.0308  0.1372
  680POPC   NC3 7157   3.180   4.568   2.027 -0.0447 -0.1139 -0.1803
  680POPC   PO4 7158   3.258   4.283   2.400 -0.1292 -0.0865 -0.0542
  680POPC   GL1 7159   3.322   4.409   2.812 -0.0052 -0.0782 -0.1024
  680POPC   GL2 7160   3.463   4.168   2.912 -0.1848  0.0588 -0.0257
  680POPC   C1A 7161   3.153   4.616   3.073  0.1299 -0.0491 -0.0224
  680POPC   D2A 7162   2.914   4.719   3.424  0.2040 -0.0230 -0.1362
  680POPC   C3A 7163   2.915   4.752   3.887  0.1137  0.0966 -0.2973
  680POPC   C4A 7164   2.995   5.236   4.105 -0.2092  0.0971 -0.1353
  680POPC   C1B 7165   3.374   4.312   3.325  0.1501 -0.0922  0.4324
  680POPC   C2B 7166   3.342   4.399   3.664  0.1268  0.1229  0.2747
  680POPC   C3B 7167   3.147   4.355   4.053  0.5766 -0.0836  0.1600
  680POPC   C4B 7168   3.106   4.710   4.390 -0.0400  0.1377 -0.0661
  681CHOL   ROH 7169  10.624  13.176   3.326  0.0840  0.2586  0.0486
  681CHOL    R1 7170  10.529  13.130   3.589  0.0733  0.1704  0.0283
  681CHOL    R2 7171  10.600  12.906   3.736  0.1502  0.1761 -0.0078
  681CHOL    R3 7172  10.676  13.091   3.920  0.0494  0.1717  0.0405
  681CHOL    R4 7173  10.595  12.858   4.078  0.1191  0.1001 -0.0177
  681CHOL    R5 7174  10.522  13.062   4.101  0.0311  0.0700  0.0131
  681CHOL    C1 7175  10.663  13.004   4.450  0.0064  0.0517  0.0219
  681CHOL    C2 7176  10.522  12.757   4.787  0.2415  0.3077 -0.0642
  682CHOL   ROH 7177   2.872   5.075   2.982  0.2223 -0.1719  0.0015
  682CHOL    R1 7178   2.844   5.215   3.227  0.2613 -0.1612  0.0000
  682CHOL    R2 7179   2.602   5.240   3.358  0.2341  0.0580 -0.0918
  682CHOL    R3 7180   2.741   5.135   3.567  0.0573 -0.0869 -0.0434
  682CHOL    R4 7181   2.475   5.190   3.676 -0.0415 -0.1772 -0.2336
  682CHOL    R5 7182   2.665   5.258   3.757 -0.1140 -0.2256 -0.0182
  682CHOL    C1 7183   2.532   5.062   4.056 -0.3679 -0.4501 -0.2707
  682CHOL    C2 7184   2.183   5.135   4.100 -0.0111  0.1568 -0.0444
  683POPE   NH3 7185  12.754  10.031   2.442 -0.1221  0.0230  0.1152
  683POPE   PO4 7186  12.989  10.426   2.507 -0.1198 -0.2882  0.1295
  683POPE   GL1 7187  13.094  10.526   3.022 -0.1294  0.1147  0.4237
  683POPE   GL2 7188  13.135  10.278   3.292  0.4582  0.0033 -0.1608
  683POPE   C1A 7189  13.176  10.816   3.367 -0.1199 -0.2218 -0.0648
  683POPE   D2A 7190  13.549  10.866   3.698  0.0252  0.1724 -0.0125
  683POPE   C3A 7191  13.653  10.632   3.957 -0.0605 -0.3490  0.3474
  683POPE   C4A 7192  13.418  10.280   4.179 -0.1819 -0.3093 -0.1307
  683POPE   C1B 7193  13.072  10.451   3.696 -0.1269 -0.0875  0.0108
  683POPE   C2B 7194  12.923  10.426   4.134 -0.5051 -0.0546 -0.0067
  683POPE   C3B 7195  12.768  10.465   4.484  0.1468 -0.1092  0.1361
  683POPE   C4B 7196  12.797  10.556   4.955  0.1903 -0.0218 -0.0315
  684POPE   NH3 7197  10.015  12.186   2.266  0.0169  0.3712 -0.0962
  684POPE   PO4 7198  10.089  12.280   2.636  0.0552 -0.0832  0.0176
  684POPE   GL1 7199  10.373  12.259   2.960  0.2551 -0.2545 -0.0072
  684POPE   GL2 7200  10.501  12.559   2.829 -0.1789  0.3332 -0.0552
  684POPE   C1A 7201  10.407  12.109   3.337 -0.3725  0.0118  0.1536
  684POPE   D2A 7202  10.539  12.242   3.694 -0.2364 -0.1838 -0.1270
  684POPE   C3A 7203  10.313  12.173   4.162 -0.0811  0.0062 -0.1576
  684POPE   C4A 7204  10.336  12.262   4.652 -0.2205  0.3394  0.3506
  684POPE   C1B 7205  10.466  12.588   3.277  0.0037 -0.0711 -0.0142
  684POPE   C2B 7206  10.193  12.677   3.703 -0.0941 -0.3582 -0.0805
  684POPE   C3B 7207  10.159  12.637   4.192  0.0763  0.0780  0.1050
  684POPE   C4B 7208  10.016  12.716   4.664  0.0565 -0.1879  0.0513
  685POSM   NC3 7209   4.261   2.805   2.048  0.2923 -0.2225 -0.2711
  685POSM   PO4 7210   4.107   3.022   2.438 -0.4434  0.1877 -0.0683
  685POSM   AM1 7211   4.152   3.295   2.798  0.1663  0.2981 -0.0087
  685POSM   AM2 7212   4.104   3.292   3.116  0.2139 -0.3104  0.2363
  685POSM   T1A 7213   4.343   3.746   2.970  0.1126  0.0956 -0.2081
  685POSM   C2A 7214   4.479   4.168   2.978 -0.1476  0.4102 -0.2181
  685POSM   C3A 7215   4.688   4.488   2.862 -0.1027  0.1523  0.0292
  685POSM   C1B 7216   4.077   3.578   3.420  0.2448  0.3533  0.0773
  685POSM   D2B 7217   4.167   3.719   3.843 -0.0207 -0.0045 -0.0486
  685POSM   C3B 7218   4.151   4.152   3.912 -0.1712 -0.0450 -0.0783
  685POSM   C4B 7219   4.134   4.309   4.355  0.1089 -0.0104  0.0538
  686CHOL   ROH 7220   4.296  13.123   3.013 -0.0074  0.0265  0.1044
  686CHOL    R1 7221   4.279  12.947   3.234 -0.1083  0.0074  0.0832
  686CHOL    R2 7222   4.452  12.961   3.450 -0.0544 -0.1519  0.0571
  686CHOL    R3 7223   4.221  12.979   3.592 -0.0278  0.0120  0.0975
  686CHOL    R4 7224   4.426  12.911   3.791 -0.0502 -0.2092  0.0491
  686CHOL    R5 7225   4.239  12.805   3.756 -0.1521 -0.0461  0.0526
  686CHOL    C1 7226   4.194  12.899   4.123 -0.0228 -0.0887  0.0823
  686CHOL    C2 7227   4.155  12.563   4.311 -0.1614 -0.0675 -0.0562
  687POPE   NH3 7228   3.078   8.503   2.635 -0.1103 -0.3181  0.0149
  687POPE   PO4 7229   3.215   8.045   2.777  0.0321  0.2719  0.2378
  687POPE   GL1 7230   3.154   7.946   3.178  0.0251 -0.1440 -0.0895
  687POPE   GL2 7231   2.902   7.967   3.385 -0.1584 -0.2212 -0.2931
  687POPE   C1A 7232   3.350   7.970   3.628 -0.1329 -0.1102  0.3301
  687POPE   D2A 7233   3.483   7.807   4.108  0.1658  0.0144  0.0674
  687POPE   C3A 7234   3.208   7.538   4.428 -0.0233  0.1159 -0.3763
  687POPE   C4A 7235   3.315   7.188   4.787 -0.3583 -0.0218 -0.1847
  687POPE   C1B 7236   2.459   7.940   3.519 -0.0964 -0.2025  0.0819
  687POPE   C2B 7237   2.375   8.242   3.881 -0.1894  0.0015  0.0183
  687POPE   C3B 7238   2.080   8.363   4.235 -0.0484  0.0498  0.0829
  687POPE   C4B 7239   1.997   8.694   4.447 -0.3442  0.0542 -0.2941
  688POPE   NH3 7240  14.002   5.254   2.447  0.0735  0.4039  0.0737
  688POPE   PO4 7241  13.693   5.503   2.685  0.1641  0.2304  0.0141
  688POPE   GL1 7242  13.614   5.834   2.929 -0.2034  0.2980  0.1189
  688POPE   GL2 7243  13.302   5.891   2.957 -0.0675  0.1542 -0.1282
  688POPE   C1A 7244  13.608   6.056   3.292 -0.2536  0.1965 -0.1240
  688POPE   D2A 7245  13.605   6.100   3.662 -0.2763 -0.0952  0.0647
  688POPE   C3A 7246  13.212   5.927   3.789  0.1581 -0.0125  0.2396
  688POPE   C4A 7247  12.802   6.146   3.656 -0.0367  0.0269  0.0062
  688POPE   C1B 7248  13.033   5.778   3.343 -0.1685 -0.0139 -0.0622
  688POPE   C2B 7249  12.732   5.632   3.723 -0.2679  0.1754  0.2624
  688POPE   C3B 7250  12.549   5.402   4.037  0.2307  0.1763 -0.0291
  688POPE   C4B 7251  12.789   5.077   4.144  0.0051 -0.2369  0.1061
  689CHOL   ROH 7252   5.598   2.838   3.221  0.1258 -0.2312  0.0392
  689CHOL    R1 7253   5.495   2.955   3.457  0.0222 -0.2052 -0.0183
  689CHOL    R2 7254   5.425   2.806   3.679  0.1827 -0.1567  0.0642
  689CHOL    R3 7255   5.594   2.977   3.807  0.0220  0.0818 -0.0336
  689CHOL    R4 7256   5.478   2.813   4.021  0.5156 -0.2240  0.0176
  689CHOL    R5 7257   5.481   3.031   4.011  0.1284 -0.2049  0.1103
  689CHOL    C1 7258   5.668   2.977   4.339  0.5586 -0.0393 -0.1013
  689CHOL    C2 7259   5.537   3.176   4.671  0.3801  0.0305 -0.3077
  690POPS   CNO 7260   9.101   2.406   2.331  0.0631  0.1772  0.0362
  690POPS   PO4 7261   9.026   2.693   2.616  0.2445 -0.1284 -0.1155
  690POPS   GL1 7262   8.902   2.656   2.996  0.1668  0.1368  0.1069
  690POPS   GL2 7263   8.614   2.566   3.044  0.0554  0.1052 -0.0967
  690POPS   C1A 7264   8.795   2.945   3.413 -0.0543 -0.0871  0.0186
  690POPS   D2A 7265   8.737   3.208   3.804  0.1696 -0.4383  0.0275
  690POPS   C3A 7266   8.931   3.346   4.239 -0.2828 -0.2393 -0.3446
  690POPS   C4A 7267   9.066   3.557   4.543  0.1341  0.2717 -0.0623
  690POPS   C1B 7268   8.617   2.479   3.477 -0.1581  0.1401  0.2224
  690POPS   C2B 7269   8.523   2.627   3.913  0.0947  0.2357 -0.1219
  690POPS   C3B 7270   8.124   2.537   4.249 -0.0180  0.1242  0.0128
  690POPS   C4B 7271   7.683   2.283   4.361 -0.0512  0.0927  0.2514
  691CHOL   ROH 7272  13.505   6.790   2.778 -0.0606 -0.0689  0.2214
  691CHOL    R1 7273  13.471   6.991   2.974 -0.1723 -0.0087  0.1410
  691CHOL    R2 7274  13.332   6.949   3.208  0.0628 -0.0702  0.2637
  691CHOL    R3 7275  13.562   7.038   3.323  0.0356  0.2945  0.0521
  691CHOL    R4 7276  13.356   7.069   3.531  0.1936 -0.2616  0.3276
  691CHOL    R5 7277  13.491   7.224   3.458 -0.1845  0.0700  0.2711
  691CHOL    C1 7278  13.586   7.223   3.827  0.2443 -0.0307  0.1663
  691CHOL    C2 7279  13.593   7.375   4.103 -0.0763 -0.0735  0.1124
  692POPE   NH3 7280   2.800   5.708   2.325 -0.0415 -0.1665  0.1569
  692POPE   PO4 7281   3.043   5.380   2.498 -0.1456  0.0193 -0.0306
  692POPE   GL1 7282   2.924   5.609   2.887  0.0541 -0.0772 -0.0902
  692POPE   GL2 7283   2.604   5.539   2.963 -0.0129 -0.0855 -0.0061
  692POPE   C1A 7284   2.946   5.672   3.339  0.2775 -0.3020  0.0388
  692POPE   D2A 7285   3.064   5.482   3.610  0.2070 -0.0338 -0.1920
  692POPE   C3A 7286   3.279   5.636   4.012 -0.1061  0.4853  0.0635
  692POPE   C4A 7287   3.577   5.507   4.260 -0.0421  0.0019  0.2966
  692POPE   C1B 7288   2.304   5.162   3.026 -0.3060  0.1245  0.0015
  692POPE   C2B 7289   2.449   4.799   3.238 -0.1462 -0.1365 -0.4512
  692POPE   C3B 7290   2.462   4.720   3.676 -0.2325 -0.0312 -0.0179
  692POPE   C4B 7291   2.376   4.631   4.049 -0.2962  0.2234  0.1867
  693CHOL   ROH 7292   4.213  11.965   2.979 -0.0959 -0.2330 -0.1242
  693CHOL    R1 7293   4.294  11.854   3.226 -0.0906 -0.1582 -0.0911
  693CHOL    R2 7294   4.302  12.000   3.460 -0.0204 -0.0675 -0.1475
  693CHOL    R3 7295   4.145  11.799   3.553 -0.0613  0.0093 -0.0495
  693CHOL    R4 7296   4.227  11.946   3.793  0.0955  0.0130 -0.1078
  693CHOL    R5 7297   4.249  11.732   3.758 -0.0036 -0.0003 -0.0827
  693CHOL    C1 7298   4.036  11.725   4.074  0.1246  0.1320  0.0073
  693CHOL    C2 7299   3.873  11.562   4.418 -0.3138 -0.0390 -0.0521
  694CHOL   ROH 7300  12.105   4.982   2.561  0.3863 -0.1462 -0.1532
  694CHOL    R1 7301  12.183   4.956   2.832  0.2295  0.0042 -0.0929
  694CHOL    R2 7302  12.004   4.979   3.042  0.0731 -0.0722 -0.2207
  694CHOL    R3 7303  12.104   4.736   3.110  0.2249  0.0285 -0.0716
  694CHOL    R4 7304  11.955   4.823   3.346  0.0861  0.0505 -0.1546
  694CHOL    R5 7305  12.162   4.757   3.341  0.1412  0.1908 -0.0604
  694CHOL    C1 7306  12.020   4.504   3.588  0.2362  0.2164  0.0237
  694CHOL    C2 7307  12.038   4.623   3.867  0.1434  0.2333  0.1521
  695POPE   NH3 7308   6.816   2.404   2.844 -0.0041  0.2916  0.0276
  695POPE   PO4 7309   7.062   2.692   2.668 -0.4753 -0.0838 -0.4120
  695POPE   GL1 7310   7.331   2.709   2.911  0.0384  0.1729 -0.0511
  695POPE   GL2 7311   7.211   2.611   3.206 -0.3345  0.3156  0.0774
  695POPE   C1A 7312   7.308   3.084   3.218 -0.0649 -0.0446  0.0038
  695POPE   D2A 7313   7.360   2.882   3.599  0.0211  0.0171 -0.1464
  695POPE   C3A 7314   7.348   2.886   4.112 -0.3746 -0.0745 -0.0254
  695POPE   C4A 7315   7.471   2.658   4.549  0.0274  0.2639  0.0373
  695POPE   C1B 7316   6.940   2.619   3.527 -0.0553  0.3380 -0.1193
  695POPE   C2B 7317   6.900   2.681   3.945  0.0503  0.3842  0.2024
  695POPE   C3B 7318   6.808   2.874   4.304  0.0517  0.1691 -0.2484
  695POPE   C4B 7319   6.477   3.071   4.677 -0.1872  0.0070 -0.1543
  696CHOL   ROH 7320   6.598  14.342   2.799  0.0460 -0.3270 -0.0035
  696CHOL    R1 7321   6.748  14.264   3.026  0.0039 -0.2627  0.0484
  696CHOL    R2 7322   6.832  14.444   3.218  0.1286 -0.1764 -0.0803
  696CHOL    R3 7323   6.705  14.274   3.388  0.0189  0.0257  0.0424
  696CHOL    R4 7324   6.901  14.413   3.555  0.1920 -0.0814 -0.0843
  696CHOL    R5 7325   6.877  14.197   3.535 -0.0152 -0.0654  0.0303
  696CHOL    C1 7326   6.821  14.235   3.911  0.1258  0.1636  0.0285
  696CHOL    C2 7327   6.851  14.058   4.262 -0.1880 -0.1144 -0.0370
  697POPE   NH3 7328   6.781  13.281   2.187  0.0495  0.0252  0.2431
  697POPE   PO4 7329   6.939  13.553   2.550  0.2393  0.1144 -0.1618
  697POPE   GL1 7330   6.790  13.801   2.891  0.0160 -0.3596  0.1528
  697POPE   GL2 7331   6.363  13.839   2.911  0.3588 -0.0567 -0.3112
  697POPE   C1A 7332   7.186  14.035   3.105  0.2416 -0.3526 -0.2663
  697POPE   D2A 7333   7.333  13.838   3.416  0.0479  0.0739  0.1794
  697POPE   C3A 7334   7.221  13.873   3.892  0.1679 -0.1323  0.1155
  697POPE   C4A 7335   7.310  13.879   4.348 -0.0045 -0.3352  0.2750
  697POPE   C1B 7336   6.421  13.800   3.314  0.2996 -0.0313  0.2169
  697POPE   C2B 7337   6.413  14.004   3.673  0.0749  0.2583  0.0514
  697POPE   C3B 7338   6.323  14.180   4.154  0.1452 -0.0683  0.1150
  697POPE   C4B 7339   5.872  13.981   4.284  0.2994 -0.1970  0.0663
  698POPC   NC3 7340   9.956   3.668   2.391 -0.3655  0.0195  0.0863
  698POPC   PO4 7341  10.378   3.721   2.628 -0.2357  0.0069  0.2726
  698POPC   GL1 7342  10.592   3.924   2.927  0.0497  0.3918 -0.3326
  698POPC   GL2 7343  10.891   3.897   2.893  0.2652  0.0789  0.0860
  698POPC   C1A 7344  10.451   3.879   3.324 -0.3488  0.0486  0.3734
  698POPC   D2A 7345  10.498   4.039   3.741  0.3419 -0.0168 -0.1484
  698POPC   C3A 7346  10.861   4.185   3.922 -0.0240  0.1911 -0.2181
  698POPC   C4A 7347  11.283   4.012   3.852 -0.2117  0.0637  0.4883
  698POPC   C1B 7348  10.826   3.552   3.251 -0.0940  0.2342  0.2157
  698POPC   C2B 7349  10.927   3.697   3.715 -0.3201 -0.0649  0.0595
  698POPC   C3B 7350  10.985   3.682   4.127  0.1445 -0.1981  0.1583
  698POPC   C4B 7351  10.783   3.487   4.548 -0.2200 -0.1490 -0.0389
  699CHOL   ROH 7352   9.540   1.947   3.100 -0.1311  0.0130 -0.0521
  699CHOL    R1 7353   9.470   1.880   3.366 -0.0818  0.0148 -0.0387
  699CHOL    R2 7354   9.659   1.840   3.564 -0.0470  0.0504 -0.0652
  699CHOL    R3 7355   9.513   2.027   3.696 -0.0537  0.0351 -0.0510
  699CHOL    R4 7356   9.643   1.870   3.908  0.0776  0.1199 -0.0648
  699CHOL    R5 7357   9.429   1.911   3.889  0.0561  0.0502  0.0075
  699CHOL    C1 7358   9.496   2.063   4.233  0.1439  0.1460 -0.0513
  699CHOL    C2 7359   9.288   2.169   4.593 -0.1217  0.2372  0.2166
  700CHOL   ROH 7360   4.494   2.791   2.934 -0.0912 -0.0089 -0.0061
  700CHOL    R1 7361   4.427   2.994   3.120  0.0125  0.0765 -0.0605
  700CHOL    R2 7362   4.517   2.992   3.381 -0.0828  0.0375 -0.0255
  700CHOL    R3 7363   4.606   3.241   3.318  0.1528 -0.0464 -0.0325
  700CHOL    R4 7364   4.660   3.214   3.604 -0.0660 -0.0097  0.0106
  700CHOL    R5 7365   4.550   3.375   3.508  0.1242  0.0497 -0.1092
  700CHOL    C1 7366   4.827   3.577   3.675  0.1648 -0.1158  0.0250
  700CHOL    C2 7367   4.702   3.857   3.868  0.2173  0.3533  0.1744
  701POSM   NC3 7368  14.872   8.165   2.008  0.2485  0.0581 -0.3417
  701POSM   PO4 7369  14.470   8.064   2.223 -0.1945  0.1153  0.0878
  701POSM   AM1 7370  14.261   7.945   2.619  0.0226  0.0563  0.2845
  701POSM   AM2 7371  14.178   8.207   2.838  0.2811 -0.1002  0.0121
  701POSM   T1A 7372  13.980   7.784   2.906 -0.1482  0.3743 -0.0200
  701POSM   C2A 7373  13.856   7.453   3.225  0.0957 -0.0420  0.0818
  701POSM   C3A 7374  13.962   7.325   3.528  0.3920 -0.4095 -0.3686
  701POSM   C1B 7375  14.176   8.324   3.163  0.1303 -0.0893 -0.0061
  701POSM   D2B 7376  14.163   8.272   3.601 -0.0318 -0.1424  0.1159
  701POSM   C3B 7377  14.180   8.265   3.973  0.0844 -0.2005 -0.2838
  701POSM   C4B 7378  14.159   8.050   4.445 -0.0834  0.2536  0.0883
  702CHOL   ROH 7379   8.223  13.356   3.229 -0.1356 -0.0405 -0.1026
  702CHOL    R1 7380   8.094  13.249   3.457  0.0273 -0.0839 -0.0289
  702CHOL    R2 7381   8.233  13.136   3.668  0.1910  0.0754 -0.0454
  702CHOL    R3 7382   8.091  13.315   3.815  0.1045  0.0058 -0.0452
  702CHOL    R4 7383   8.193  13.123   4.011  0.1171  0.0068 -0.0572
  702CHOL    R5 7384   7.985  13.182   3.984  0.1074 -0.0525 -0.0919
  702CHOL    C1 7385   8.036  13.282   4.348 -0.0073 -0.0986 -0.0639
  702CHOL    C2 7386   8.147  13.270   4.692  0.2016  0.2264 -0.0969
  703POPC   NC3 7387   6.570  13.869   2.469 -0.4467 -0.1579  0.2403
  703POPC   PO4 7388   6.439  13.421   2.593  0.0918 -0.0496  0.3482
  703POPC   GL1 7389   6.185  13.377   3.003 -0.0877 -0.1046  0.0737
  703POPC   GL2 7390   5.896  13.194   3.121 -0.1902 -0.2152 -0.1214
  703POPC   C1A 7391   6.314  13.317   3.458  0.0142  0.1011 -0.1598
  703POPC   D2A 7392   6.263  13.115   3.905  0.0154  0.0892  0.1479
  703POPC   C3A 7393   6.463  12.845   4.231  0.4345 -0.0199 -0.0196
  703POPC   C4A 7394   6.653  12.820   4.637 -0.0212 -0.0220  0.0861
  703POPC   C1B 7395   5.847  13.167   3.567 -0.0426  0.0906  0.1599
  703POPC   C2B 7396   5.737  13.320   3.925 -0.1087 -0.1305  0.1413
  703POPC   C3B 7397   5.240  13.389   4.003  0.0454  0.2566  0.0364
  703POPC   C4B 7398   5.079  13.677   4.187 -0.0707 -0.1234 -0.3030
  704POPC   NC3 7399   6.590   3.980   2.390 -0.0003 -0.0981  0.0139
  704POPC   PO4 7400   6.709   3.692   2.628 -0.3769  0.0748  0.0169
  704POPC   GL1 7401   6.715   3.315   2.852 -0.0113  0.1018 -0.0379
  704POPC   GL2 7402   6.862   2.986   2.994  0.1138 -0.1354  0.0870
  704POPC   C1A 7403   6.442   3.338   3.251 -0.1070 -0.0628  0.1098
  704POPC   D2A 7404   6.328   3.179   3.628 -0.1642 -0.2008 -0.0555
  704POPC   C3A 7405   6.489   2.706   3.638 -0.3383 -0.3219  0.1535
  704POPC   C4A 7406   6.206   2.322   3.470 -0.1306  0.2085  0.0137
  704POPC   C1B 7407   6.886   3.110   3.468  0.2461 -0.0923  0.2535
  704POPC   C2B 7408   6.758   3.185   3.847  0.2738 -0.2820 -0.1753
  704POPC   C3B 7409   6.397   3.106   4.141 -0.2556 -0.4159  0.2678
  704POPC   C4B 7410   6.232   2.863   4.333  0.2100 -0.0693  0.0905
  705POPS   CNO 7411  13.164   8.592   2.560 -0.0063 -0.0062  0.0168
  705POPS   PO4 7412  13.381   8.822   2.663 -0.1791  0.3214  0.0384
  705POPS   GL1 7413  13.279   8.735   3.055 -0.0566 -0.2563 -0.1854
  705POPS   GL2 7414  13.006   8.731   3.090 -0.1049 -0.1415  0.2018
  705POPS   C1A 7415  13.457   8.770   3.441 -0.3213 -0.0227  0.0390
  705POPS   D2A 7416  13.700   8.409   3.704  0.0790 -0.0294  0.0145
  705POPS   C3A 7417  13.412   8.029   3.706  0.0920  0.1809  0.3871
  705POPS   C4A 7418  13.237   7.622   3.649  0.0458 -0.2223  0.2449
  705POPS   C1B 7419  12.765   9.035   3.353  0.1104  0.0684  0.1319
  705POPS   C2B 7420  12.757   8.966   3.721 -0.1401 -0.1054  0.1765
  705POPS   C3B 7421  12.637   8.835   4.097  0.0314  0.3536  0.0228
  705POPS   C4B 7422  12.417   9.045   4.371 -0.2056 -0.0201 -0.2364
  706POPE   NH3 7423   1.726   6.651   2.623 -0.0110  0.0723  0.1007
  706POPE   PO4 7424   1.837   7.042   2.727  0.0076 -0.0732  0.0116
  706POPE   GL1 7425   2.005   6.781   3.123  0.0001  0.0849 -0.3813
  706POPE   GL2 7426   2.172   7.113   3.341 -0.2001  0.0457 -0.0729
  706POPE   C1A 7427   1.830   6.654   3.437 -0.1949 -0.1887  0.2379
  706POPE   D2A 7428   1.715   6.366   3.762 -0.2178 -0.2079 -0.4121
  706POPE   C3A 7429   1.301   6.480   3.985 -0.0114 -0.2453  0.4944
  706POPE   C4A 7430   0.843   6.391   4.121  0.0864  0.1876  0.1929
  706POPE   C1B 7431   2.265   7.307   3.569  0.1603  0.4459 -0.2070
  706POPE   C2B 7432   2.412   7.586   3.904  0.0992  0.1505 -0.3087
  706POPE   C3B 7433   2.500   7.870   4.214  0.2272  0.1022  0.1137
  706POPE   C4B 7434   2.478   8.185   4.465  0.1460  0.2729 -0.2755
  707CHOL   ROH 7435  11.902   3.860   2.884  0.1825  0.0617 -0.0994
  707CHOL    R1 7436  11.788   3.829   3.141  0.1241 -0.0176 -0.1351
  707CHOL    R2 7437  11.855   3.620   3.309  0.1874  0.0078 -0.1315
  707CHOL    R3 7438  11.908   3.821   3.485  0.0272  0.0235 -0.0992
  707CHOL    R4 7439  11.889   3.580   3.651  0.2405 -0.0273 -0.1405
  707CHOL    R5 7440  11.778   3.766   3.679  0.0823 -0.1230 -0.1012
  707CHOL    C1 7441  11.958   3.745   4.015  0.1210 -0.0330 -0.1154
  707CHOL    C2 7442  11.931   3.894   4.356 -0.2973  0.1037 -0.0720
  708POPE   NH3 7443  12.409  12.365   2.521  0.3048 -0.0976  0.0221
  708POPE   PO4 7444  12.746  12.100   2.696  0.1558  0.0421 -0.1055
  708POPE   GL1 7445  12.757  11.723   3.037 -0.1914 -0.2130 -0.0057
  708POPE   GL2 7446  12.621  11.467   3.169  0.0360  0.3480  0.1964
  708POPE   C1A 7447  12.886  11.709   3.475 -0.1100 -0.2685  0.3869
  708POPE   D2A 7448  12.985  11.603   3.904  0.2656 -0.1936  0.3408
  708POPE   C3A 7449  12.898  11.703   4.272  0.0270 -0.0398 -0.0036
  708POPE   C4A 7450  13.260  11.660   4.540 -0.4055 -0.1220  0.1031
  708POPE   C1B 7451  12.771  11.162   3.520  0.0502  0.0527 -0.0342
  708POPE   C2B 7452  13.027  10.925   3.881 -0.0263  0.0691  0.1493
  708POPE   C3B 7453  13.242  10.741   4.304  0.0785 -0.3459  0.1555
  708POPE   C4B 7454  13.228  10.518   4.614 -0.3559 -0.0416  0.0093
  709POPC   NC3 7455  11.403  13.226   2.434 -0.2125  0.0037  0.3615
  709POPC   PO4 7456  11.169  13.165   2.686 -0.0531  0.0016  0.2022
  709POPC   GL1 7457  11.105  12.994   3.107  0.0979  0.0513 -0.0344
  709POPC   GL2 7458  10.926  12.766   3.116 -0.0761 -0.0429  0.0028
  709POPC   C1A 7459  11.077  13.059   3.518  0.1264 -0.1191 -0.0081
  709POPC   D2A 7460  11.157  12.990   3.916 -0.2688 -0.0830  0.0562
  709POPC   C3A 7461  10.980  13.330   4.214 -0.2239  0.2004 -0.2153
  709POPC   C4A 7462  10.860  13.394   4.635 -0.0768  0.0648  0.1098
  709POPC   C1B 7463  10.904  12.563   3.501  0.1044 -0.1613  0.1556
  709POPC   C2B 7464  11.145  12.493   3.890  0.0265  0.4540  0.1016
  709POPC   C3B 7465  11.119  12.668   4.388 -0.4732 -0.1539  0.2208
  709POPC   C4B 7466  10.994  12.899   4.786 -0.1842 -0.0693  0.0575
  710POSM   NC3 7467  12.438  11.433   2.720  0.1043 -0.0007  0.2316
  710POSM   PO4 7468  12.199  11.131   2.546 -0.2175  0.1119  0.0824
  710POSM   AM1 7469  12.229  10.969   2.948 -0.0399 -0.3601  0.0215
  710POSM   AM2 7470  12.092  11.225   3.072  0.1425  0.0334 -0.1267
  710POSM   T1A 7471  12.275  10.864   3.351 -0.1494 -0.0329 -0.0409
  710POSM   C2A 7472  12.207  11.062   3.760 -0.2061 -0.1252  0.1556
  710POSM   C3A 7473  12.236  11.220   4.248  0.0053  0.1103  0.0496
  710POSM   C1B 7474  12.077  11.441   3.462 -0.0060  0.3228  0.0732
  710POSM   D2B 7475  11.962  11.583   3.944 -0.6625  0.2989 -0.3546
  710POSM   C3B 7476  12.365  11.685   4.263 -0.0098 -0.1796 -0.0017
  710POSM   C4B 7477  12.512  11.864   4.522  0.0591 -0.3559 -0.2394
  711POPE   NH3 7478   9.545   2.764   2.745  0.2825 -0.1446  0.1207
  711POPE   PO4 7479   9.937   2.924   2.945 -0.1890  0.1646 -0.1372
  711POPE   GL1 7480   9.717   2.711   3.287  0.2123  0.1326 -0.1418
  711POPE   GL2 7481   9.472   2.445   3.253 -0.0454 -0.2992  0.0221
  711POPE   C1A 7482   9.522   2.758   3.654 -0.2011 -0.0248 -0.1196
  711POPE   D2A 7483   9.520   2.940   4.037  0.0544  0.2917 -0.2403
  711POPE   C3A 7484   9.815   3.052   4.405  0.3831 -0.1830  0.0265
  711POPE   C4A 7485   9.932   3.328   4.761  0.1612 -0.1200  0.1129
  711POPE   C1B 7486   9.094   2.564   3.449 -0.3266 -0.1378  0.0971
  711POPE   C2B 7487   9.049   2.794   3.827  0.1872  0.4832  0.0220
  711POPE   C3B 7488   9.033   2.898   4.303  0.0823  0.1658  0.3890
  711POPE   C4B 7489   9.167   2.728   4.621 -0.0246 -0.1296  0.0112
  712POPS   CNO 7490  12.000  12.415   2.261 -0.1031  0.1363 -0.0030
  712POPS   PO4 7491  12.002  12.105   2.498 -0.2424  0.3052 -0.0856
  712POPS   GL1 7492  12.276  11.944   2.887  0.2702  0.0730  0.1801
  712POPS   GL2 7493  12.128  11.706   3.054 -0.1061  0.0707  0.1009
  712POPS   C1A 7494  12.456  11.927   3.375  0.0760 -0.0864  0.0394
  712POPS   D2A 7495  12.464  11.798   3.740  0.1233 -0.0176  0.1557
  712POPS   C3A 7496  12.518  11.424   3.873 -0.2552 -0.3727  0.0673
  712POPS   C4A 7497  12.737  11.244   4.197 -0.0819 -0.0856 -0.2352
  712POPS   C1B 7498  11.776  11.814   3.321 -0.2102 -0.0273  0.0752
  712POPS   C2B 7499  11.544  11.633   3.619 -0.0634  0.0172  0.1112
  712POPS   C3B 7500  11.434  11.612   4.100  0.0788 -0.0831 -0.3050
  712POPS   C4B 7501  11.389  11.221   4.426  0.1340  0.0885  0.0881
  713POSM   NC3 7502   2.410   6.474   2.241  0.0269  0.0681 -0.0987
  713POSM   PO4 7503   2.482   6.090   2.319  0.1849  0.1780 -0.1439
  713POSM   AM1 7504   2.707   6.061   2.747  0.0842  0.2704 -0.0848
  713POSM   AM2 7505   2.994   6.183   2.878 -0.1345 -0.2633 -0.0787
  713POSM   T1A 7506   2.515   5.978   3.126 -0.1436 -0.1763  0.3138
  713POSM   C2A 7507   2.625   5.936   3.616  0.0296  0.1146  0.0898
  713POSM   C3A 7508   2.801   5.771   3.904  0.2962 -0.1144 -0.1149
  713POSM   C1B 7509   2.824   6.383   3.230 -0.1261 -0.0930 -0.3942
  713POSM   D2B 7510   2.584   6.729   3.382 -0.1546  0.0103  0.0383
  713POSM   C3B 7511   2.196   6.811   3.696 -0.1976 -0.0275 -0.1323
  713POSM   C4B 7512   2.245   6.605   4.107  0.2460 -0.2864  0.0251
  714POPC   NC3 7513   3.465   9.942   2.040 -0.1553  0.0197  0.1290
  714POPC   PO4 7514   3.447   9.877   2.489  0.2077 -0.1302  0.2556
  714POPC   GL1 7515   3.453  10.002   2.911 -0.0502 -0.3496  0.1564
  714POPC   GL2 7516   3.233  10.229   3.064  0.0037  0.1097  0.1276
  714POPC   C1A 7517   3.579  10.127   3.371  0.0130  0.1108  0.2321
  714POPC   D2A 7518   3.831  10.356   3.579  0.1576  0.0629  0.2521
  714POPC   C3A 7519   3.865  10.162   4.011 -0.1784  0.3915  0.0001
  714POPC   C4A 7520   3.747  10.053   4.439 -0.0044  0.1630 -0.1714
  714POPC   C1B 7521   3.162  10.352   3.511 -0.2090 -0.0641  0.0311
  714POPC   C2B 7522   3.235  10.442   3.923  0.0100  0.0855 -0.0847
  714POPC   C3B 7523   3.051  10.685   4.216 -0.1474  0.0846  0.1133
  714POPC   C4B 7524   2.642  10.726   4.487 -0.1368  0.2543  0.0288
  715CHOL   ROH 7525  14.656   8.302   3.148  0.0641  0.1279  0.0571
  715CHOL    R1 7526  14.720   8.179   3.395  0.0569  0.0979  0.0444
  715CHOL    R2 7527  14.802   8.323   3.616 -0.0851  0.0841  0.1045
  715CHOL    R3 7528  14.597   8.192   3.737 -0.0507 -0.0569  0.0131
  715CHOL    R4 7529  14.799   8.228   3.948 -0.1911  0.1497  0.1227
  715CHOL    R5 7530  14.705   8.040   3.887 -0.0082  0.0584  0.1050
  715CHOL    C1 7531  14.604   8.049   4.255 -0.2206  0.0555  0.0476
  715CHOL    C2 7532  14.668   8.089   4.635 -0.1914 -0.0623 -0.0269
  716POSM   NC3 7533   8.919  13.592   2.545  0.0241  0.2505  0.0236
  716POSM   PO4 7534   8.624  13.798   2.547 -0.0893 -0.2349 -0.0647
  716POSM   AM1 7535   8.606  13.580   2.932 -0.1591 -0.0302 -0.2043
  716POSM   AM2 7536   8.620  13.205   2.961 -0.0172 -0.2246  0.3921
  716POSM   T1A 7537   8.645  13.818   3.377  0.0052  0.3531 -0.0708
  716POSM   C2A 7538   8.825  13.823   3.789  0.1036 -0.1029 -0.1268
  716POSM   C3A 7539   9.035  13.909   4.112  0.0565  0.3501 -0.4386
  716POSM   C1B 7540   8.665  13.311   3.322 -0.1136  0.0725 -0.1541
  716POSM   D2B 7541   8.654  13.378   3.713 -0.0397  0.2684 -0.1719
  716POSM   C3B 7542   8.699  13.114   4.047 -0.2061  0.0234  0.0412
  716POSM   C4B 7543   8.483  12.937   4.427 -0.0830 -0.0782 -0.0572
  717CHOL   ROH 7544   3.786  11.749   2.956 -0.1604 -0.0150 -0.0450
  717CHOL    R1 7545   3.835  11.753   3.235 -0.0486 -0.0370 -0.0635
  717CHOL    R2 7546   3.785  11.974   3.393  0.0091 -0.0490 -0.0230
  717CHOL    R3 7547   3.638  11.797   3.538  0.0701 -0.0656  0.0179
  717CHOL    R4 7548   3.716  12.003   3.730 -0.0083  0.0053 -0.0315
  717CHOL    R5 7549   3.747  11.789   3.750  0.0673  0.0235  0.0210
  717CHOL    C1 7550   3.539  11.853   4.063  0.0388  0.0214  0.0020
  717CHOL    C2 7551   3.413  11.922   4.434  0.1347  0.3075  0.0965
  718CHOL   ROH 7552   3.059   9.779   2.822  0.0057 -0.2536  0.2828
  718CHOL    R1 7553   3.000   9.720   3.093 -0.0065 -0.1406  0.3067
  718CHOL    R2 7554   3.160   9.807   3.302  0.0344 -0.1228  0.2778
  718CHOL    R3 7555   2.926   9.910   3.394  0.0718 -0.0071  0.2405
  718CHOL    R4 7556   3.091   9.874   3.633  0.0399  0.0109  0.2510
  718CHOL    R5 7557   2.890   9.798   3.603  0.0189  0.0790  0.2716
  718CHOL    C1 7558   2.832  10.011   3.914  0.0783  0.1973  0.2005
  718CHOL    C2 7559   2.736   9.772   4.180 -0.3692 -0.0049 -0.0654
  719CHOL   ROH 7560   2.974  10.742   3.250  0.0008 -0.0171 -0.0547
  719CHOL    R1 7561   2.886  10.907   3.462 -0.1676 -0.0998 -0.0581
  719CHOL    R2 7562   2.760  10.807   3.686  0.1312 -0.2551  0.0447
  719CHOL    R3 7563   2.957  10.940   3.818 -0.0197  0.1324 -0.1064
  719CHOL    R4 7564   2.716  10.983   3.980 -0.0246 -0.1907 -0.0155
  719CHOL    R5 7565   2.849  11.137   3.902 -0.3092 -0.0013 -0.1502
  719CHOL    C1 7566   2.876  11.211   4.275 -0.2570  0.2105 -0.1923
  719CHOL    C2 7567   2.965  11.305   4.636  0.1689 -0.1360 -0.1034
  720POPC   NC3 7568   4.530   2.287   2.887 -0.2512  0.1616  0.1313
  720POPC   PO4 7569   4.839   2.473   2.797  0.3041  0.2396  0.2363
  720POPC   GL1 7570   4.971   2.772   3.149 -0.1805  0.1331  0.0105
  720POPC   GL2 7571   4.993   3.114   3.094 -0.2733 -0.0119 -0.2216
  720POPC   C1A 7572   4.987   2.878   3.502  0.0234 -0.3789 -0.0742
  720POPC   D2A 7573   4.987   3.028   3.920 -0.1130 -0.4770 -0.3512
  720POPC   C3A 7574   5.066   2.935   4.336  0.0736  0.0157  0.0414
  720POPC   C4A 7575   5.366   2.715   4.583 -0.1910  0.3094 -0.0772
  720POPC   C1B 7576   5.165   3.348   3.435  0.0330  0.1334 -0.2394
  720POPC   C2B 7577   5.267   3.437   3.782 -0.0703  0.1497  0.0585
  720POPC   C3B 7578   5.351   3.442   4.262  0.1599 -0.0098  0.1572
  720POPC   C4B 7579   5.067   3.285   4.678  0.0228 -0.0524 -0.0937
  721POPE   NH3 7580  12.845  11.339   2.008  0.2072 -0.3951 -0.3318
  721POPE   PO4 7581  12.792  11.339   2.393 -0.1878  0.0953  0.1542
  721POPE   GL1 7582  12.924  11.239   2.838 -0.3134  0.2043  0.0468
  721POPE   GL2 7583  13.277  11.232   3.118  0.0001 -0.0484  0.1085
  721POPE   C1A 7584  12.796  10.930   3.098  0.0607  0.2347  0.0006
  721POPE   D2A 7585  12.700  10.629   3.360 -0.0194  0.0832  0.2527
  721POPE   C3A 7586  12.626  10.590   3.738  0.1493 -0.3347 -0.0129
  721POPE   C4A 7587  12.549  10.842   4.147 -0.0361  0.3762  0.1931
  721POPE   C1B 7588  13.286  11.327   3.542  0.1382  0.1226  0.2945
  721POPE   C2B 7589  13.314  11.266   4.052  0.0040  0.0695 -0.1547
  721POPE   C3B 7590  13.113  11.195   4.457 -0.1297  0.1243 -0.0511
  721POPE   C4B 7591  12.819  10.958   4.599  0.1454 -0.1290 -0.0300
  722POPE   NH3 7592  10.578  12.185   2.501  0.0545  0.0178  0.0350
  722POPE   PO4 7593  11.046  12.509   2.677  0.0155 -0.1147  0.3533
  722POPE   GL1 7594  11.114  12.250   3.052 -0.2712 -0.1429  0.0667
  722POPE   GL2 7595  11.525  12.126   3.043 -0.1652  0.0795 -0.2355
  722POPE   C1A 7596  10.909  12.121   3.345 -0.2553 -0.2515 -0.0362
  722POPE   D2A 7597  10.974  11.800   3.771  0.1626  0.1733 -0.0947
  722POPE   C3A 7598  10.837  12.032   4.090 -0.0614 -0.0190  0.0414
  722POPE   C4A 7599  10.682  12.462   4.398  0.0184  0.0670  0.1282
  722POPE   C1B 7600  11.386  12.198   3.443 -0.4470  0.1108  0.1064
  722POPE   C2B 7601  11.543  12.095   3.890 -0.3673  0.0172 -0.0528
  722POPE   C3B 7602  11.349  12.127   4.252  0.2128  0.3455 -0.2303
  722POPE   C4B 7603  11.082  12.089   4.505 -0.2541  0.3733  0.1754
  723POPS   CNO 7604   4.657  13.342   2.448  0.2942  0.2532  0.0985
  723POPS   PO4 7605   4.957  12.976   2.485  0.1423 -0.3714 -0.1964
  723POPS   GL1 7606   4.902  13.069   2.844  0.4643 -0.0075 -0.0383
  723POPS   GL2 7607   4.792  13.200   2.965 -0.0690 -0.2234  0.2735
  723POPS   C1A 7608   5.249  13.014   3.143 -0.0124 -0.1257 -0.0071
  723POPS   D2A 7609   5.306  13.082   3.550  0.1510  0.0000 -0.1425
  723POPS   C3A 7610   5.406  13.478   3.506 -0.0575 -0.0892  0.1537
  723POPS   C4A 7611   5.610  13.749   3.790 -0.0599  0.2171 -0.0359
  723POPS   C1B 7612   4.872  13.287   3.399  0.2878  0.1266  0.2161
  723POPS   C2B 7613   4.717  13.338   3.705  0.0287 -0.1437 -0.1558
  723POPS   C3B 7614   4.704  13.302   4.118  0.0546 -0.2380 -0.1225
  723POPS   C4B 7615   4.757  13.523   4.539  0.0844 -0.1371  0.0483
  724POSM   NC3 7616   6.288   1.798   2.605  0.0610  0.3116 -0.0388
  724POSM   PO4 7617   6.383   2.301   2.539 -0.0367 -0.1506  0.1951
  724POSM   AM1 7618   6.179   2.424   2.851 -0.0251 -0.4369  0.3181
  724POSM   AM2 7619   5.982   2.178   2.970 -0.3020 -0.1269  0.2000
  724POSM   T1A 7620   6.055   2.652   3.165 -0.0375 -0.1124 -0.1114
  724POSM   C2A 7621   6.026   2.852   3.462 -0.0499  0.0613 -0.0809
  724POSM   C3A 7622   6.084   2.772   3.855  0.1726 -0.3036  0.1278
  724POSM   C1B 7623   6.061   1.898   3.303 -0.0624 -0.1289  0.1604
  724POSM   D2B 7624   6.062   1.841   3.690 -0.2656  0.2043  0.2069
  724POSM   C3B 7625   6.202   2.075   3.994 -0.2935 -0.0911 -0.0969
  724POSM   C4B 7626   6.468   2.418   4.064 -0.0250  0.0919  0.1977
  725POPC   NC3 7627   2.475   8.254   2.150  0.1048 -0.1348  0.1593
  725POPC   PO4 7628   2.599   8.451   2.590 -0.6353 -0.0960  0.2142
  725POPC   GL1 7629   2.603   8.474   2.975  0.0613 -0.4467 -0.1924
  725POPC   GL2 7630   2.825   8.718   3.023 -0.3406  0.2034  0.0150
  725POPC   C1A 7631   2.767   8.450   3.444  0.1447  0.2962 -0.1066
  725POPC   D2A 7632   2.922   8.292   3.805  0.0558  0.0557 -0.1035
  725POPC   C3A 7633   2.845   8.508   4.116 -0.0657 -0.2007 -0.0694
  725POPC   C4A 7634   3.004   8.548   4.498  0.0506 -0.4930 -0.0721
  725POPC   C1B 7635   3.078   8.849   3.308  0.0243 -0.0529  0.0936
  725POPC   C2B 7636   3.095   8.881   3.768  0.2213 -0.1380  0.0856
  725POPC   C3B 7637   2.891   8.984   4.116  0.0642 -0.1974 -0.2652
  725POPC   C4B 7638   2.699   9.269   4.393  0.1152  0.1603 -0.1427
  726POSM   NC3 7639  11.307   3.067   1.850 -0.2695 -0.2829  0.0157
  726POSM   PO4 7640  11.572   3.161   2.218 -0.0244  0.3975 -0.0378
  726POSM   AM1 7641  11.501   3.325   2.626  0.0878  0.2088  0.0245
  726POSM   AM2 7642  11.287   3.680   2.664 -0.0995  0.0240  0.0320
  726POSM   T1A 7643  11.743   3.298   2.952  0.0185 -0.1647  0.0459
  726POSM   C2A 7644  12.161   3.239   3.116  0.1315  0.2371 -0.3689
  726POSM   C3A 7645  12.596   3.104   3.190  0.0270  0.0050  0.2155
  726POSM   C1B 7646  11.342   3.712   3.026  0.0478 -0.2074 -0.0879
  726POSM   D2B 7647  11.382   3.709   3.420  0.0823  0.0038 -0.0895
  726POSM   C3B 7648  10.983   4.135   3.431  0.1867  0.0563 -0.0916
  726POSM   C4B 7649  10.633   4.422   3.235 -0.0906 -0.2796  0.0980
  727CHOL   ROH 7650   2.931   4.064   2.815 -0.1343 -0.1854 -0.0277
  727CHOL    R1 7651   2.972   4.180   3.070  0.0032 -0.0956 -0.0887
  727CHOL    R2 7652   2.763   4.265   3.230  0.0914  0.0530 -0.0459
  727CHOL    R3 7653   2.879   4.102   3.413  0.0947  0.0800 -0.0244
  727CHOL    R4 7654   2.665   4.238   3.560 -0.0382 -0.0693 -0.0934
  727CHOL    R5 7655   2.876   4.228   3.616 -0.0629  0.0327 -0.0008
  727CHOL    C1 7656   2.718   4.068   3.924 -0.1106 -0.1152 -0.1010
  727CHOL    C2 7657   2.657   4.262   4.121 -0.1650 -0.0668  0.1839
  728POSM   NC3 7658  11.482   2.819   2.597  0.0699 -0.1604  0.1563
  728POSM   PO4 7659  11.037   2.913   2.679  0.3610 -0.2720 -0.2940
  728POSM   AM1 7660  10.818   3.017   3.080  0.0731  0.2703  0.1070
  728POSM   AM2 7661  10.672   2.827   3.122 -0.0023  0.1343  0.1056
  728POSM   T1A 7662  11.016   3.196   3.536  0.4414 -0.0130 -0.1201
  728POSM   C2A 7663  10.928   3.199   3.998  0.0579 -0.2339 -0.1696
  728POSM   C3A 7664  10.737   3.077   4.229  0.1379  0.3258 -0.2976
  728POSM   C1B 7665  10.751   2.800   3.628 -0.0592  0.1149  0.1435
  728POSM   D2B 7666  10.784   2.561   3.896 -0.0746  0.0087  0.1042
  728POSM   C3B 7667  10.853   2.607   4.236 -0.1449  0.0761  0.1484
  728POSM   C4B 7668  10.716   2.384   4.652  0.0393 -0.0285  0.2529
  729POPS   CNO 7669   2.694   3.153   2.222  0.1798  0.1489  0.2422
  729POPS   PO4 7670   2.582   3.284   2.660  0.0258  0.1580 -0.0333
  729POPS   GL1 7671   2.742   3.373   3.016  0.0800  0.2249 -0.1918
  729POPS   GL2 7672   2.954   3.550   2.989  0.1055 -0.1915  0.0173
  729POPS   C1A 7673   2.924   3.184   3.373 -0.1536 -0.1475 -0.0074
  729POPS   D2A 7674   3.060   3.318   3.846  0.1975  0.0253 -0.0520
  729POPS   C3A 7675   3.017   3.355   4.272 -0.3956 -0.0773 -0.3791
  729POPS   C4A 7676   2.655   3.412   4.492 -0.2773 -0.2204  0.0164
  729POPS   C1B 7677   3.225   3.701   3.209 -0.1238 -0.3254 -0.4973
  729POPS   C2B 7678   3.292   3.859   3.578 -0.2490 -0.1786 -0.1025
  729POPS   C3B 7679   3.148   3.803   3.949  0.1720  0.0654 -0.0079
  729POPS   C4B 7680   3.267   3.977   4.349 -0.0271 -0.0208  0.1804
  730POPE   NH3 7681   3.159  10.655   2.795 -0.0394 -0.2751 -0.0536
  730POPE   PO4 7682   3.056  11.055   2.788 -0.1328  0.1727  0.4427
  730POPE   GL1 7683   3.113  11.303   3.158 -0.0173 -0.0664 -0.1137
  730POPE   GL2 7684   3.299  11.454   3.242  0.0551 -0.0935 -0.1398
  730POPE   C1A 7685   2.924  11.503   3.571 -0.0371  0.2222 -0.0746
  730POPE   D2A 7686   3.005  11.633   4.007  0.3154  0.0235 -0.2508
  730POPE   C3A 7687   2.914  11.760   4.546  0.1913 -0.2524  0.0531
  730POPE   C4A 7688   3.065  11.826   4.920  0.0894  0.0896 -0.0382
  730POPE   C1B 7689   3.363  11.411   3.754  0.1661 -0.2474 -0.2145
  730POPE   C2B 7690   3.378  11.363   4.216  0.0135 -0.1870 -0.0875
  730POPE   C3B 7691   3.477  11.261   4.578 -0.1562 -0.2434  0.1629
  730POPE   C4B 7692   3.749  11.248   4.869  0.3281 -0.0120  0.1343
  731CHOL   ROH 7693   1.704   4.410   3.073  0.1726  0.2008 -0.1001
  731CHOL    R1 7694   1.626   4.483   3.336  0.1433  0.1088 -0.0829
  731CHOL    R2 7695   1.708   4.343   3.559  0.1500  0.0533 -0.1203
  731CHOL    R3 7696   1.793   4.587   3.641  0.1061  0.0418 -0.0390
  731CHOL    R4 7697   1.788   4.425   3.885 -0.0700  0.0178 -0.0550
  731CHOL    R5 7698   1.691   4.617   3.856 -0.0413  0.0266 -0.1050
  731CHOL    C1 7699   1.916   4.702   4.152 -0.2393 -0.0137  0.0594
  731CHOL    C2 7700   1.738   4.920   4.489 -0.3628 -0.0435  0.0473
  732POPC   NC3 7701   1.117   5.781   2.681 -0.1966  0.1827 -0.0125
  732POPC   PO4 7702   1.474   6.212   2.524  0.1174 -0.3076 -0.1611
  732POPC   GL1 7703   1.666   6.201   2.905 -0.0838  0.3836 -0.2941
  732POPC   GL2 7704   1.575   6.501   3.061  0.2270 -0.1045  0.2739
  732POPC   C1A 7705   1.758   6.134   3.350  0.0478  0.1185 -0.0328
  732POPC   D2A 7706   1.851   5.848   3.617  0.3016  0.0682 -0.3707
  732POPC   C3A 7707   2.149   6.075   3.908  0.0633  0.1010 -0.0902
  732POPC   C4A 7708   2.500   6.062   4.298 -0.0406 -0.0477 -0.1750
  732POPC   C1B 7709   1.322   6.649   3.410  0.0065  0.2522 -0.1984
  732POPC   C2B 7710   0.877   6.589   3.583 -0.0253  0.2874  0.3076
  732POPC   C3B 7711   0.555   6.805   3.977  0.0889 -0.0931 -0.2116
  732POPC   C4B 7712   0.620   6.782   4.442  0.2996 -0.1748 -0.1814
  733POPE   NH3 7713  13.891   8.805   2.126 -0.2984  0.2827  0.2622
  733POPE   PO4 7714  14.212   8.898   2.207 -0.0596 -0.1690  0.0520
  733POPE   GL1 7715  14.357   9.081   2.575 -0.0858 -0.0992  0.2492
  733POPE   GL2 7716  14.547   8.848   2.722  0.2308 -0.2696  0.2135
  733POPE   C1A 7717  14.243   9.168   2.955  0.0967  0.1115 -0.0593
  733POPE   D2A 7718  13.968   9.324   3.352  0.0054  0.1308 -0.0296
  733POPE   C3A 7719  13.805   9.126   3.615 -0.0991 -0.3299  0.0435
  733POPE   C4A 7720  13.608   8.853   3.949 -0.1796 -0.1484 -0.1246
  733POPE   C1B 7721  14.422   8.770   3.140 -0.0848  0.2618 -0.2205
  733POPE   C2B 7722  14.428   8.636   3.514 -0.0293  0.0986 -0.1818
  733POPE   C3B 7723  14.498   8.617   3.970 -0.0395 -0.2652 -0.3988
  733POPE   C4B 7724  14.525   8.568   4.395  0.0498  0.0787 -0.2822
  734POPE   NH3 7725   9.354  13.341   2.346  0.3742 -0.0860  0.1888
  734POPE   PO4 7726   9.114  13.148   2.734 -0.3272  0.0648  0.0562
  734POPE   GL1 7727   9.029  13.014   3.152 -0.0534 -0.0148  0.4137
  734POPE   GL2 7728   9.135  13.378   3.168  0.1190 -0.1021  0.0947
  734POPE   C1A 7729   9.238  13.071   3.564  0.1500 -0.3971  0.0350
  734POPE   D2A 7730   9.218  13.326   3.831  0.1115 -0.1486 -0.1894
  734POPE   C3A 7731   9.547  13.265   4.144 -0.0918  0.0875  0.0166
  734POPE   C4A 7732   9.614  13.040   4.544 -0.4030  0.0771 -0.0552
  734POPE   C1B 7733   9.150  13.635   3.472  0.1736 -0.1670  0.0866
  734POPE   C2B 7734   9.220  14.019   3.558  0.4295  0.1031 -0.1804
  734POPE   C3B 7735   9.018  14.303   3.760 -0.1400  0.0235  0.2001
  734POPE   C4B 7736   8.764  14.642   3.712  0.1162  0.0492 -0.1258
  735POPE   NH3 7737  13.320  11.271   2.527 -0.1186  0.1716 -0.0757
  735POPE   PO4 7738  13.289  10.891   2.660 -0.1134 -0.1649  0.2471
  735POPE   GL1 7739  13.636  10.901   2.920  0.0743 -0.3324 -0.1460
  735POPE   GL2 7740  13.703  10.648   3.059 -0.3049 -0.2298  0.1191
  735POPE   C1A 7741  13.830  11.097   3.279 -0.1396 -0.0787  0.3681
  735POPE   D2A 7742  13.719  11.290   3.630 -0.2597  0.1271  0.3377
  735POPE   C3A 7743  13.816  11.118   4.022 -0.2562  0.0839 -0.2119
  735POPE   C4A 7744  14.058  11.122   4.370 -0.1479 -0.1511 -0.1755
  735POPE   C1B 7745  13.579  10.475   3.395  0.0047  0.1129 -0.1728
  735POPE   C2B 7746  13.557  10.203   3.627  0.0993 -0.0559 -0.3652
  735POPE   C3B 7747  13.577   9.856   3.989  0.1933 -0.1520  0.1184
  735POPE   C4B 7748  13.831   9.631   4.295 -0.1469 -0.2139 -0.2362
  736CHOL   ROH 7749   4.012   2.812   3.235 -0.3948  0.2980  0.0460
  736CHOL    R1 7750   3.999   2.976   3.465 -0.0801  0.3594  0.0229
  736CHOL    R2 7751   4.129   2.912   3.701 -0.1776  0.1576  0.0164
  736CHOL    R3 7752   4.236   3.160   3.672  0.2753 -0.0307 -0.0194
  736CHOL    R4 7753   4.314   3.076   3.942 -0.4734  0.1152  0.2794
  736CHOL    R5 7754   4.211   3.261   3.888 -0.0768  0.2369 -0.1643
  736CHOL    C1 7755   4.522   3.405   4.056 -0.2205 -0.0862  0.3989
  736CHOL    C2 7756   4.825   3.346   4.248 -0.3396  0.1476 -0.1635
  737CHOL   ROH 7757  14.167   5.759   2.745 -0.1198  0.0919 -0.0092
  737CHOL    R1 7758  14.100   5.854   3.004 -0.0118  0.1884 -0.0155
  737CHOL    R2 7759  14.075   5.686   3.222 -0.1534  0.2368  0.0101
  737CHOL    R3 7760  14.255   5.856   3.333  0.0180  0.0827 -0.0290
  737CHOL    R4 7761  14.097   5.759   3.559  0.0465  0.1524  0.0161
  737CHOL    R5 7762  14.134   5.967   3.506  0.1751  0.1355  0.0456
  737CHOL    C1 7763  14.280   5.961   3.859  0.3238 -0.0414 -0.0171
  737CHOL    C2 7764  14.140   5.917   4.062  0.2360  0.1966  0.1372
  738CHOL   ROH 7765  11.448  12.653   2.912  0.2472  0.0796 -0.0408
  738CHOL    R1 7766  11.560  12.654   3.172  0.1582  0.1832 -0.0013
  738CHOL    R2 7767  11.526  12.865   3.348 -0.1457  0.1310  0.0086
  738CHOL    R3 7768  11.435  12.669   3.513  0.0204  0.0067 -0.0432
  738CHOL    R4 7769  11.627  12.820   3.675 -0.1657  0.1786  0.0212
  738CHOL    R5 7770  11.627  12.605   3.641  0.0626  0.1820 -0.0161
  738CHOL    C1 7771  11.600  12.610   4.021 -0.0215  0.0896 -0.0201
  738CHOL    C2 7772  11.758  12.675   4.383 -0.1286 -0.0314  0.0020
  739CHOL   ROH 7773  13.249   5.412   2.963 -0.0459 -0.0947  0.0121
  739CHOL    R1 7774  13.366   5.409   3.221  0.0394 -0.0646 -0.0234
  739CHOL    R2 7775  13.631   5.476   3.265  0.0685 -0.0697 -0.1154
  739CHOL    R3 7776  13.524   5.652   3.442  0.1238 -0.0387 -0.1173
  739CHOL    R4 7777  13.720   5.502   3.598 -0.0390 -0.1748 -0.0800
  739CHOL    R5 7778  13.510   5.529   3.647 -0.0244 -0.0533 -0.1465
  739CHOL    C1 7779  13.670   5.681   3.958 -0.0497 -0.2068 -0.0611
  739CHOL    C2 7780  13.623   5.455   4.224 -0.1692 -0.1988 -0.2081
  740POSM   NC3 7781   8.534   0.974   2.663 -0.2031  0.2334  0.0216
  740POSM   PO4 7782   8.747   1.373   2.741 -0.1445 -0.1771  0.0430
  740POSM   AM1 7783   8.559   1.615   3.063  0.0294  0.2938  0.0141
  740POSM   AM2 7784   8.608   1.922   2.995 -0.4069  0.0569  0.1869
  740POSM   T1A 7785   8.658   1.699   3.422 -0.1829  0.2010  0.1100
  740POSM   C2A 7786   8.679   1.658   3.809 -0.3672 -0.0957 -0.3496
  740POSM   C3A 7787   8.579   1.619   4.199 -0.1214 -0.2311 -0.1086
  740POSM   C1B 7788   8.381   2.119   3.246  0.3365 -0.1301  0.0847
  740POSM   D2B 7789   8.414   2.080   3.684 -0.1558  0.1759 -0.0192
  740POSM   C3B 7790   8.392   2.088   4.127 -0.0142 -0.2648 -0.0028
  740POSM   C4B 7791   8.587   1.987   4.521  0.0732 -0.1149 -0.1570
  741POPC   NC3 7792   2.264   7.500   2.585 -0.0712 -0.3051 -0.1018
  741POPC   PO4 7793   2.401   7.864   2.542 -0.2477 -0.0832 -0.0896
  741POPC   GL1 7794   2.233   7.937   2.963 -0.0031  0.2943  0.0424
  741POPC   GL2 7795   2.174   8.248   2.960 -0.2732  0.0775  0.0687
  741POPC   C1A 7796   2.057   7.785   3.388 -0.0044 -0.1730 -0.1090
  741POPC   D2A 7797   1.908   7.483   3.873 -0.0494 -0.3368  0.2478
  741POPC   C3A 7798   1.932   7.741   4.195 -0.4338  0.0695 -0.0503
  741POPC   C4A 7799   2.009   7.951   4.599 -0.2076  0.0029  0.1157
  741POPC   C1B 7800   2.015   8.327   3.417 -0.0544  0.1077 -0.0997
  741POPC   C2B 7801   1.901   8.112   3.789 -0.1574  0.1496 -0.1785
  741POPC   C3B 7802   1.523   8.158   3.972  0.1009 -0.2506 -0.4524
  741POPC   C4B 7803   1.359   7.803   4.250  0.3909 -0.0196  0.1146
  742POPS   CNO 7804   4.195  13.216   2.226 -0.0267  0.1466 -0.2010
  742POPS   PO4 7805   4.040  13.029   2.591  0.3553  0.0210 -0.0318
  742POPS   GL1 7806   3.787  13.086   2.977  0.0893  0.1199 -0.1866
  742POPS   GL2 7807   3.579  12.861   2.958 -0.1849  0.3402 -0.2114
  742POPS   C1A 7808   3.849  13.182   3.384  0.3667 -0.1711 -0.1811
  742POPS   D2A 7809   3.785  12.978   3.787 -0.1020  0.2339 -0.1003
  742POPS   C3A 7810   3.815  13.224   4.215  0.2409 -0.0719 -0.1081
  742POPS   C4A 7811   3.989  13.026   4.594 -0.4502  0.2504  0.1937
  742POPS   C1B 7812   3.755  12.703   3.399 -0.0763  0.0382  0.1058
  742POPS   C2B 7813   4.002  12.404   3.689  0.0275 -0.0537  0.0233
  742POPS   C3B 7814   3.895  12.179   4.123  0.0216  0.0017 -0.2057
  742POPS   C4B 7815   3.764  12.277   4.539 -0.0878  0.0237 -0.0102
  743CHOL   ROH 7816   9.019   2.186   3.161  0.0776  0.2374 -0.0568
  743CHOL    R1 7817   8.925   2.094   3.411  0.1775  0.0510 -0.0862
  743CHOL    R2 7818   9.092   2.054   3.628  0.2368  0.0802 -0.1220
  743CHOL    R3 7819   8.916   2.219   3.753  0.1246 -0.1081 -0.0280
  743CHOL    R4 7820   9.068   2.094   3.970  0.2111 -0.1193 -0.0996
  743CHOL    R5 7821   8.851   2.099   3.949  0.2086 -0.2572 -0.0923
  743CHOL    C1 7822   8.888   2.273   4.287  0.0908 -0.4121  0.0017
  743CHOL    C2 7823   8.635   2.560   4.390 -0.0151 -0.1124 -0.0798
  744CHOL   ROH 7824   6.170  14.394   2.892 -0.3010  0.1169  0.0586
  744CHOL    R1 7825   6.316  14.400   3.134 -0.3061 -0.1258  0.0700
  744CHOL    R2 7826   6.388  14.637   3.259  0.0391 -0.2428  0.0993
  744CHOL    R3 7827   6.261  14.526   3.472 -0.1444 -0.0778  0.0795
  744CHOL    R4 7828   6.463  14.703   3.589 -0.0153 -0.2405  0.1115
  744CHOL    R5 7829   6.435  14.491   3.633 -0.2319 -0.2079  0.1486
  744CHOL    C1 7830   6.387  14.637   3.982 -0.2192 -0.0843  0.1000
  744CHOL    C2 7831   6.601  14.573   4.207  0.0684  0.0001 -0.2179
  745POPE   NH3 7832  14.025   7.771   2.132 -0.1419 -0.2589 -0.0860
  745POPE   PO4 7833  14.008   7.497   2.514 -0.0114  0.0863  0.0303
  745POPE   GL1 7834  14.078   7.214   2.892 -0.3631 -0.2567 -0.1806
  745POPE   GL2 7835  14.415   7.314   3.095  0.1245  0.0706 -0.1733
  745POPE   C1A 7836  14.031   6.878   3.330 -0.0618 -0.2348 -0.1550
  745POPE   D2A 7837  14.038   6.906   3.767  0.1475  0.0432 -0.0992
  745POPE   C3A 7838  14.056   7.236   4.032  0.2694 -0.0949 -0.0488
  745POPE   C4A 7839  13.991   7.542   4.358 -0.4608 -0.0002  0.0641
  745POPE   C1B 7840  14.395   7.181   3.453  0.2445 -0.0280  0.0690
  745POPE   C2B 7841  14.566   7.118   3.895  0.2673 -0.3835 -0.0721
  745POPE   C3B 7842  14.519   6.997   4.227 -0.1090 -0.1660  0.3042
  745POPE   C4B 7843  14.279   6.924   4.539  0.0433 -0.4455 -0.3322
  746POPS   CNO 7844   7.554  13.922   2.009  0.1864 -0.2266  0.2191
  746POPS   PO4 7845   7.718  13.967   2.395 -0.0462 -0.0869 -0.2064
  746POPS   GL1 7846   7.716  14.063   2.836 -0.0474  0.0740 -0.0007
  746POPS   GL2 7847   8.061  13.953   2.849  0.1477  0.0374 -0.2174
  746POPS   C1A 7848   7.716  14.117   3.272  0.3608 -0.1358 -0.0621
  746POPS   D2A 7849   7.892  14.100   3.611  0.0588  0.0600 -0.2255
  746POPS   C3A 7850   7.689  14.119   4.084 -0.0233 -0.2477 -0.0387
  746POPS   C4A 7851   7.495  14.321   4.554  0.4254 -0.0415 -0.1149
  746POPS   C1B 7852   8.194  13.815   3.222 -0.0013 -0.0459 -0.0757
  746POPS   C2B 7853   8.274  13.733   3.649  0.2666  0.0243 -0.1119
  746POPS   C3B 7854   8.447  13.680   4.071 -0.0601  0.1537  0.1527
  746POPS   C4B 7855   8.615  13.954   4.355 -0.1712  0.2573  0.1243
  747POSM   NC3 7856   1.489   4.479   1.977 -0.0274 -0.2435  0.1180
  747POSM   PO4 7857   1.538   4.865   2.270 -0.2699  0.1111 -0.2931
  747POSM   AM1 7858   1.669   4.883   2.734 -0.2254 -0.1052 -0.0794
  747POSM   AM2 7859   2.076   4.786   2.704 -0.1825  0.3313 -0.3223
  747POSM   T1A 7860   1.385   4.922   3.193  0.1266  0.1382  0.0737
  747POSM   C2A 7861   1.451   4.984   3.578 -0.2663  0.0226  0.1203
  747POSM   C3A 7862   1.537   5.110   4.053  0.2514 -0.2730  0.1471
  747POSM   C1B 7863   1.905   4.875   3.155  0.0154  0.0583  0.1069
  747POSM   D2B 7864   2.051   4.984   3.555  0.1341  0.0122  0.0379
  747POSM   C3B 7865   1.880   5.278   3.695 -0.2015  0.2401 -0.0511
  747POSM   C4B 7866   1.816   5.528   4.101  0.0412 -0.4896 -0.1594
  748POPS   CNO 7867   8.169   1.376   2.532  0.1527 -0.4250 -0.0014
  748POPS   PO4 7868   8.014   1.727   2.671 -0.1343 -0.0631  0.1359
  748POPS   GL1 7869   7.985   1.863   3.014 -0.2500  0.1911  0.3089
  748POPS   GL2 7870   8.050   1.524   3.177 -0.2382  0.1322 -0.1289
  748POPS   C1A 7871   7.901   2.030   3.325  0.2998  0.4088 -0.5128
  748POPS   D2A 7872   7.568   2.355   3.474 -0.1375 -0.2449 -0.0242
  748POPS   C3A 7873   7.357   2.435   3.867 -0.2067 -0.3121 -0.3863
  748POPS   C4A 7874   7.108   2.283   4.163 -0.3279  0.2494 -0.0228
  748POPS   C1B 7875   8.088   1.650   3.579 -0.1665  0.3640 -0.0534
  748POPS   C2B 7876   8.029   1.687   3.942  0.0433 -0.1554  0.0750
  748POPS   C3B 7877   8.110   1.709   4.371  0.1433  0.0030 -0.1517
  748POPS   C4B 7878   7.736   1.727   4.751 -0.2499  0.3967  0.2258
  749POPC   NC3 7879  12.669   3.574   2.653  0.1181 -0.0914 -0.1545
  749POPC   PO4 7880  12.368   3.927   2.709 -0.1783 -0.1901  0.0304
  749POPC   GL1 7881  12.604   4.290   2.949  0.2656 -0.0623 -0.0019
  749POPC   GL2 7882  12.668   4.634   2.950 -0.0032 -0.0093 -0.1065
  749POPC   C1A 7883  12.626   4.440   3.441 -0.0711  0.1015  0.2822
  749POPC   D2A 7884  12.513   4.670   3.734  0.2179  0.1340 -0.1955
  749POPC   C3A 7885  12.486   4.691   4.169 -0.1809 -0.2361 -0.2146
  749POPC   C4A 7886  12.520   4.711   4.634  0.2305  0.2174 -0.1222
  749POPC   C1B 7887  12.579   4.909   3.179 -0.4537  0.0331 -0.0748
  749POPC   C2B 7888  12.800   5.323   3.353  0.1408  0.3722  0.0919
  749POPC   C3B 7889  13.108   5.343   3.638  0.2101  0.1719 -0.0610
  749POPC   C4B 7890  13.158   5.486   4.050  0.0045  0.3480 -0.0580
  750POPC   NC3 7891   5.201   1.717   2.591  0.0095  0.1857  0.1479
  750POPC   PO4 7892   4.934   1.974   2.793  0.0029  0.2393  0.3145
  750POPC   GL1 7893   5.011   2.115   3.097 -0.1335  0.1179 -0.2112
  750POPC   GL2 7894   4.812   2.158   3.258 -0.2668  0.0662  0.2961
  750POPC   C1A 7895   5.164   2.397   3.446  0.3594  0.0913  0.1925
  750POPC   D2A 7896   4.984   2.520   3.898 -0.1530 -0.1230 -0.1294
  750POPC   C3A 7897   5.052   2.461   4.221  0.2492  0.1427 -0.0229
  750POPC   C4A 7898   4.833   2.507   4.567  0.0028  0.0513  0.3705
  750POPC   C1B 7899   4.725   2.112   3.718 -0.0658  0.1887  0.1829
  750POPC   C2B 7900   4.736   1.966   4.107  0.2286 -0.0621 -0.0427
  750POPC   C3B 7901   4.734   1.593   4.330  0.1446  0.0208  0.1974
  750POPC   C4B 7902   4.676   1.193   4.224  0.2698  0.0879 -0.0959
  751POPE   NH3 7903   5.948  13.298   2.595 -0.0308 -0.0118 -0.0413
  751POPE   PO4 7904   5.711  13.607   2.515  0.2374  0.1254  0.0684
  751POPE   GL1 7905   5.841  13.758   2.907 -0.2862 -0.3171  0.2061
  751POPE   GL2 7906   5.640  13.799   3.086 -0.0267  0.0107  0.0689
  751POPE   C1A 7907   5.982  14.110   3.272  0.0624  0.0806 -0.1737
  751POPE   D2A 7908   5.959  14.166   3.648  0.0135  0.3132 -0.1263
  751POPE   C3A 7909   5.915  14.421   4.022  0.0034 -0.1621 -0.0032
  751POPE   C4A 7910   6.179  14.586   4.437  0.0005 -0.0385  0.0593
  751POPE   C1B 7911   5.839  13.630   3.416 -0.1230  0.0472  0.0431
  751POPE   C2B 7912   6.114  13.654   3.791  0.0167 -0.2027  0.0631
  751POPE   C3B 7913   6.061  13.474   4.203  0.1362 -0.1362 -0.1382
  751POPE   C4B 7914   6.152  13.189   4.475 -0.2248 -0.0205 -0.2150
  752POSM   NC3 7915  10.219   2.551   2.891  0.2268  0.0884 -0.0413
  752POSM   PO4 7916   9.844   2.363   2.876  0.1481 -0.3521  0.0497
  752POSM   AM1 7917  10.002   2.211   3.279  0.0350  0.1179  0.4562
  752POSM   AM2 7918  10.044   1.910   3.287 -0.3002  0.0696 -0.3442
  752POSM   T1A 7919   9.988   2.321   3.683 -0.0454 -0.0908 -0.0259
  752POSM   C2A 7920   9.762   2.430   4.007 -0.0634  0.0138  0.0218
  752POSM   C3A 7921   9.331   2.526   4.183 -0.0963  0.1025 -0.0710
  752POSM   C1B 7922  10.184   1.829   3.723  0.0017 -0.0100  0.1095
  752POSM   D2B 7923  10.090   2.025   4.085 -0.0278  0.2292  0.0740
  752POSM   C3B 7924  10.022   1.767   4.408  0.1538 -0.1899  0.2080
  752POSM   C4B 7925   9.519   1.661   4.539 -0.0084 -0.1828 -0.0377
  753POPC   NC3 7926   2.924  11.587   2.654  0.3879  0.0103  0.0816
  753POPC   PO4 7927   3.288  11.718   2.856  0.2391 -0.1634 -0.0112
  753POPC   GL1 7928   3.299  11.981   3.105  0.1977 -0.0971 -0.0162
  753POPC   GL2 7929   3.523  12.224   3.117  0.0379 -0.0222  0.2815
  753POPC   C1A 7930   3.167  11.911   3.523 -0.0001  0.2549  0.2006
  753POPC   D2A 7931   3.166  12.116   3.871 -0.0493 -0.1864 -0.3487
  753POPC   C3A 7932   3.051  12.537   3.913 -0.1344  0.0496 -0.2093
  753POPC   C4A 7933   2.822  12.750   4.226 -0.1476  0.3063 -0.1727
  753POPC   C1B 7934   3.436  12.374   3.537  0.3816 -0.1886 -0.2218
  753POPC   C2B 7935   3.568  12.446   3.941 -0.1193  0.1153 -0.1449
  753POPC   C3B 7936   3.670  12.711   4.259 -0.1163 -0.1336  0.0597
  753POPC   C4B 7937   3.572  12.820   4.698  0.0485  0.0861  0.0005
  754CHOL   ROH 7938   4.395   2.584   3.295 -0.2676  0.1415 -0.0108
  754CHOL    R1 7939   4.521   2.524   3.541 -0.2002 -0.1769 -0.1182
  754CHOL    R2 7940   4.543   2.709   3.747  0.3756 -0.2452 -0.1050
  754CHOL    R3 7941   4.424   2.512   3.891  0.0456 -0.0075 -0.0410
  754CHOL    R4 7942   4.493   2.715   4.089  0.5088 -0.1050 -0.0866
  754CHOL    R5 7943   4.546   2.505   4.096  0.1120 -0.2158 -0.0805
  754CHOL    C1 7944   4.353   2.533   4.424  0.2765  0.1998 -0.0158
  754CHOL    C2 7945   4.088   2.364   4.617  0.1583  0.2118 -0.2115
  755POSM   NC3 7946  12.011   3.035   2.474  0.2785 -0.1501 -0.0632
  755POSM   PO4 7947  11.968   2.599   2.482 -0.0484 -0.0933  0.2793
  755POSM   AM1 7948  11.831   2.683   2.936  0.2578  0.1497 -0.0138
  755POSM   AM2 7949  11.787   2.337   3.043 -0.0751  0.1293  0.1104
  755POSM   T1A 7950  11.655   2.903   3.290 -0.0681 -0.0262 -0.2244
  755POSM   C2A 7951  11.496   3.239   3.465 -0.1945 -0.5184  0.2657
  755POSM   C3A 7952  11.364   3.414   3.905 -0.0690  0.0713  0.4947
  755POSM   C1B 7953  11.881   2.387   3.432  0.0628 -0.0389  0.2241
  755POSM   D2B 7954  11.811   2.659   3.767 -0.0581  0.0414 -0.0510
  755POSM   C3B 7955  11.757   2.622   4.220  0.3565 -0.0424  0.2966
  755POSM   C4B 7956  11.885   2.953   4.437  0.1795  0.0045 -0.3127
  756CHOL   ROH 7957  14.497   7.811   3.032  0.0579 -0.1537  0.2009
  756CHOL    R1 7958  14.375   7.870   3.281  0.1346 -0.0340  0.2115
  756CHOL    R2 7959  14.275   7.673   3.447 -0.0930  0.0634  0.1954
  756CHOL    R3 7960  14.437   7.791   3.631  0.0568 -0.1450  0.2009
  756CHOL    R4 7961  14.290   7.588   3.782 -0.3016  0.1199  0.2203
  756CHOL    R5 7962  14.305   7.800   3.830  0.0230  0.1131  0.1715
  756CHOL    C1 7963  14.451   7.650   4.149 -0.2825 -0.0429  0.2400
  756CHOL    C2 7964  14.463   7.457   4.394 -0.0760  0.1708  0.0498
  757CHOL   ROH 7965   8.151  14.463   3.040 -0.1382  0.0214  0.0039
  757CHOL    R1 7966   8.153  14.339   3.295 -0.1178  0.0913  0.0385
  757CHOL    R2 7967   8.377  14.214   3.399 -0.1546 -0.0219 -0.0138
  757CHOL    R3 7968   8.333  14.381   3.608  0.0317  0.0667 -0.0436
  757CHOL    R4 7969   8.523  14.183   3.710  0.0771  0.0774 -0.1106
  757CHOL    R5 7970   8.332  14.238   3.800  0.1540  0.1417  0.0138
  757CHOL    C1 7971   8.567  14.322   4.088  0.3869  0.2183 -0.1949
  757CHOL    C2 7972   8.941  14.382   4.335  0.0899  0.0169 -0.0353
  758POPS   CNO 7973  14.085  11.555   2.392  0.1946 -0.4361 -0.2856
  758POPS   PO4 7974  13.690  11.683   2.407 -0.3510  0.0658 -0.0333
  758POPS   GL1 7975  13.508  11.669   2.761  0.1584 -0.0792 -0.0352
  758POPS   GL2 7976  13.671  11.462   2.944 -0.4426 -0.1340 -0.1065
  758POPS   C1A 7977  13.262  11.775   3.119  0.0776 -0.1691 -0.1789
  758POPS   D2A 7978  13.428  11.751   3.493  0.2156 -0.0980 -0.0303
  758POPS   C3A 7979  13.543  11.796   3.864  0.0813  0.0906 -0.1604
  758POPS   C4A 7980  13.694  11.596   4.142  0.3077  0.1390 -0.0609
  758POPS   C1B 7981  13.822  11.595   3.202 -0.1357 -0.0563  0.0021
  758POPS   C2B 7982  13.958  11.713   3.583 -0.2814  0.2504 -0.0793
  758POPS   C3B 7983  14.024  12.055   3.876  0.2542  0.0980 -0.1542
  758POPS   C4B 7984  14.068  12.144   4.268 -0.2733 -0.2227 -0.3795
  759CHOL   ROH 7985  13.256  12.185   2.863 -0.0200 -0.1418  0.0088
  759CHOL    R1 7986  13.190  12.290   3.118 -0.0531 -0.0159 -0.0484
  759CHOL    R2 7987  12.975  12.197   3.265  0.0410 -0.0863  0.0623
  759CHOL    R3 7988  13.164  12.162   3.458  0.1150  0.1930  0.0422
  759CHOL    R4 7989  12.907  12.141   3.599  0.1677 -0.2926  0.0544
  759CHOL    R5 7990  13.073  12.274   3.650 -0.0628 -0.0167  0.0778
  759CHOL    C1 7991  13.044  12.076   3.975  0.3109 -0.1505  0.0309
  759CHOL    C2 7992  12.640  12.077   4.118 -0.0223  0.0622  0.0276
  760POPC   NC3 7993   5.174  13.433   2.425  0.2383 -0.0868  0.1221
  760POPC   PO4 7994   4.863  13.714   2.704  0.0731 -0.3654 -0.3025
  760POPC   GL1 7995   4.819  13.831   3.052 -0.0783  0.1713  0.1275
  760POPC   GL2 7996   5.081  13.844   3.237 -0.0045 -0.1526  0.0500
  760POPC   C1A 7997   4.652  13.775   3.501 -0.0806  0.1370  0.0037
  760POPC   D2A 7998   4.549  13.747   3.918 -0.2028  0.1175 -0.0060
  760POPC   C3A 7999   4.556  13.956   4.322 -0.2050 -0.1534 -0.0150
  760POPC   C4A 8000   4.586  14.361   4.562  0.0257  0.0638  0.1180
  760POPC   C1B 8001   5.072  13.875   3.718  0.0844  0.1575 -0.0423
  760POPC   C2B 8002   4.938  14.118   3.970  0.1750 -0.1829  0.0890
  760POPC   C3B 8003   5.022  14.180   4.392  0.2972  0.0846  0.2898
  760POPC   C4B 8004   5.129  14.413   4.744 -0.0199 -0.0951 -0.3161
  761CHOL   ROH 8005   6.466   2.062   3.062  0.0802 -0.0717  0.0317
  761CHOL    R1 8006   6.595   1.979   3.300  0.1610  0.1235  0.0590
  761CHOL    R2 8007   6.699   2.157   3.482 -0.3016  0.2961  0.1636
  761CHOL    R3 8008   6.542   2.021   3.657 -0.0892 -0.1080  0.0519
  761CHOL    R4 8009   6.780   2.095   3.813 -0.3502  0.4670  0.2095
  761CHOL    R5 8010   6.697   1.894   3.790  0.1475  0.2526  0.1358
  761CHOL    C1 8011   6.679   1.930   4.169 -0.1790  0.1873  0.1312
  761CHOL    C2 8012   6.780   2.133   4.480  0.3114  0.0616  0.2275
  762CHOL   ROH 8013  13.845   9.610   2.935  0.1321  0.1480 -0.1821
  762CHOL    R1 8014  13.589   9.652   3.048  0.1290  0.0744 -0.1574
  762CHOL    R2 8015  13.516   9.548   3.294  0.1524 -0.0152 -0.1812
  762CHOL    R3 8016  13.455   9.807   3.349  0.1227 -0.0403 -0.1024
  762CHOL    R4 8017  13.301   9.652   3.543 -0.0047 -0.1177 -0.2740
  762CHOL    R5 8018  13.223   9.803   3.407  0.0879 -0.0571 -0.2528
  762CHOL    C1 8019  13.119   9.956   3.741 -0.1240 -0.2009 -0.2539
  762CHOL    C2 8020  13.072   9.808   3.963  0.1140  0.1810  0.1786
  763CHOL   ROH 8021  14.184  10.750   2.990 -0.0397 -0.0114  0.0148
  763CHOL    R1 8022  14.261  10.607   3.222  0.0054 -0.0174 -0.0031
  763CHOL    R2 8023  14.188  10.686   3.476  0.1169  0.0184  0.0198
  763CHOL    R3 8024  14.091  10.433   3.493  0.0548  0.0454  0.0675
  763CHOL    R4 8025  14.135  10.515   3.772  0.0769  0.0828  0.0500
  763CHOL    R5 8026  14.213  10.335   3.675  0.0310  0.0475  0.0828
  763CHOL    C1 8027  14.013  10.177   3.959 -0.0047  0.1456  0.1123
  763CHOL    C2 8028  13.907  10.104   4.285  0.3033  0.1403  0.2205
  764POPE   NH3 8029  12.488  13.174   2.554 -0.3113 -0.2932  0.3089
  764POPE   PO4 8030  12.215  12.801   2.505 -0.0899  0.2172  0.0972
  764POPE   GL1 8031  11.982  12.631   2.846  0.1729 -0.0015  0.0768
  764POPE   GL2 8032  11.915  12.427   2.842  0.0594  0.0326 -0.2890
  764POPE   C1A 8033  12.017  12.668   3.334  0.0860  0.2239  0.3135
  764POPE   D2A 8034  12.068  12.649   3.829 -0.0213  0.3119  0.0168
  764POPE   C3A 8035  12.273  12.475   4.197  0.2340  0.3270  0.0378
  764POPE   C4A 8036  12.502  12.339   4.570 -0.1065 -0.1357 -0.0596
  764POPE   C1B 8037  12.036  12.216   3.208  0.2130 -0.0031 -0.2379
  764POPE   C2B 8038  11.943  12.193   3.601 -0.0550  0.4796 -0.2337
  764POPE   C3B 8039  12.065  12.099   3.949  0.1033  0.0563 -0.1680
  764POPE   C4B 8040  11.858  12.130   4.400  0.0665 -0.0100  0.1340
  765CHOL   ROH 8041  12.374   3.694   3.218 -0.0093  0.1722 -0.0597
  765CHOL    R1 8042  12.338   3.540   3.452  0.1427  0.0922 -0.0887
  765CHOL    R2 8043  12.531   3.521   3.649  0.1098  0.3564 -0.0307
  765CHOL    R3 8044  12.328   3.601   3.811 -0.0645  0.0400 -0.0837
  765CHOL    R4 8045  12.485   3.415   3.975  0.3131  0.4330  0.0248
  765CHOL    R5 8046  12.271   3.405   3.936  0.3249 -0.0186  0.0171
  765CHOL    C1 8047  12.267   3.429   4.316  0.2678  0.1806  0.0074
  765CHOL    C2 8048  12.061   3.407   4.711  0.0593 -0.1655 -0.2474
  766POPE   NH3 8049   1.461   7.420   2.707  0.1194  0.1071  0.0065
  766POPE   PO4 8050   1.441   7.065   2.440  0.0934 -0.2481 -0.0107
  766POPE   GL1 8051   1.229   6.861   2.819 -0.0566  0.0069 -0.3640
  766POPE   GL2 8052   1.449   7.070   3.086  0.2810  0.2806 -0.0702
  766POPE   C1A 8053   0.938   6.796   3.150  0.1741  0.0618  0.0709
  766POPE   D2A 8054   0.582   6.498   3.153  0.0632  0.1602  0.1882
  766POPE   C3A 8055   0.408   6.630   3.421  0.0893 -0.1148  0.0389
  766POPE   C4A 8056   0.150   6.976   3.612  0.0330  0.0350  0.3539
  766POPE   C1B 8057   1.198   7.162   3.564 -0.0733  0.0084 -0.0466
  766POPE   C2B 8058   1.065   6.915   3.927  0.0457 -0.0484  0.0187
  766POPE   C3B 8059   1.051   6.903   4.316  0.2124 -0.0734  0.0003
  766POPE   C4B 8060   0.980   6.855   4.774 -0.3045  0.1532  0.2176
  767CHOL   ROH 8061   2.686   9.899   2.594  0.0252  0.1095 -0.0843
  767CHOL    R1 8062   2.585   9.971   2.849  0.1307  0.0720 -0.0328
  767CHOL    R2 8063   2.398   9.818   2.984  0.1022  0.1149 -0.0339
  767CHOL    R3 8064   2.584   9.827   3.183  0.1584 -0.0350 -0.0766
  767CHOL    R4 8065   2.335   9.751   3.317  0.0888  0.2867  0.0001
  767CHOL    R5 8066   2.466   9.917   3.371  0.2934  0.1604 -0.0777
  767CHOL    C1 8067   2.472   9.721   3.698  0.1338  0.2460 -0.0202
  767CHOL    C2 8068   2.321  10.003   3.894 -0.2246  0.0684 -0.1200
  768CHOL   ROH 8069  10.922  13.441   3.084 -0.1455 -0.2852 -0.1226
  768CHOL    R1 8070  10.955  13.529   3.352 -0.0426 -0.3062 -0.1283
  768CHOL    R2 8071  10.786  13.712   3.471  0.1198 -0.1675 -0.1131
  768CHOL    R3 8072  10.762  13.518   3.659 -0.0144 -0.1429 -0.1032
  768CHOL    R4 8073  10.577  13.728   3.745  0.1000 -0.0209 -0.1354
  768CHOL    R5 8074  10.735  13.637   3.865  0.0373 -0.1095 -0.1122
  768CHOL    C1 8075  10.432  13.555   4.082 -0.0375  0.0875 -0.1392
  768CHOL    C2 8076  10.435  13.510   4.378 -0.1206 -0.0523 -0.0104
  769POPE   NH3 8077   9.947   1.860   2.812 -0.0467  0.1068  0.0390
  769POPE   PO4 8078  10.320   2.095   2.834  0.1440 -0.1912 -0.0766
  769POPE   GL1 8079  10.528   2.209   3.225 -0.1120 -0.0027 -0.1518
  769POPE   GL2 8080  10.827   2.179   3.254  0.2573 -0.0739 -0.1189
  769POPE   C1A 8081  10.454   2.267   3.613 -0.0806  0.1595 -0.0916
  769POPE   D2A 8082  10.564   2.130   4.015  0.0676 -0.1844 -0.1452
  769POPE   C3A 8083  10.376   2.373   4.205  0.0760 -0.1433 -0.1734
  769POPE   C4A 8084  10.022   2.282   4.504  0.2071 -0.0797  0.0042
  769POPE   C1B 8085  10.915   2.161   3.629  0.0134 -0.3322  0.3130
  769POPE   C2B 8086  11.136   2.237   4.001  0.2800  0.1846 -0.0844
  769POPE   C3B 8087  11.314   2.340   4.329 -0.0478 -0.0318  0.0497
  769POPE   C4B 8088  11.206   2.730   4.573 -0.0651 -0.0401 -0.2069
  770POPE   NH3 8089   2.091  10.494   2.198 -0.0309  0.1163 -0.1720
  770POPE   PO4 8090   2.491  10.340   2.346  0.1834  0.1207 -0.1015
  770POPE   GL1 8091   2.606  10.497   2.788  0.1689  0.2557  0.0713
  770POPE   GL2 8092   2.617  10.826   2.921 -0.0610 -0.0865 -0.2056
  770POPE   C1A 8093   2.751  10.331   3.144 -0.0670 -0.0411  0.0566
  770POPE   D2A 8094   2.650  10.324   3.599  0.0473  0.1441 -0.3225
  770POPE   C3A 8095   2.580  10.484   4.044 -0.3316 -0.2119  0.0402
  770POPE   C4A 8096   2.198  10.717   4.292  0.0316 -0.3864 -0.0029
  770POPE   C1B 8097   2.493  11.114   3.187 -0.2282  0.3858 -0.1172
  770POPE   C2B 8098   2.479  11.241   3.593 -0.0553 -0.1786  0.1347
  770POPE   C3B 8099   2.441  11.533   3.872 -0.0991  0.1869 -0.1586
  770POPE   C4B 8100   2.281  11.884   3.923  0.1488  0.0084  0.0238
  771POPC   NC3 8101   2.193   5.044   2.199 -0.1570  0.3018  0.4619
  771POPC   PO4 8102   2.304   5.477   2.477 -0.0818  0.0720 -0.0078
  771POPC   GL1 8103   2.024   5.430   2.759  0.0061 -0.0348 -0.1687
  771POPC   GL2 8104   1.722   5.717   2.681 -0.0498  0.1554  0.1608
  771POPC   C1A 8105   1.706   5.304   3.059 -0.0066  0.1777  0.1651
  771POPC   D2A 8106   1.278   5.340   2.982 -0.3449  0.1804 -0.2387
  771POPC   C3A 8107   1.049   5.556   3.315 -0.3125 -0.2242  0.2510
  771POPC   C4A 8108   0.729   5.610   3.633 -0.0017 -0.1732  0.2681
  771POPC   C1B 8109   1.514   5.788   3.137 -0.0455  0.0977 -0.0172
  771POPC   C2B 8110   1.492   5.584   3.461  0.2722 -0.0844 -0.1366
  771POPC   C3B 8111   1.234   5.546   3.805  0.0057 -0.0927 -0.1644
  771POPC   C4B 8112   0.876   5.441   4.071 -0.1457 -0.0262 -0.0631
  772POPS   CNO 8113   3.285   8.925   2.853 -0.0469  0.0039  0.0893
  772POPS   PO4 8114   3.021   9.030   2.596 -0.2388 -0.1613  0.3108
  772POPS   GL1 8115   2.839   9.196   2.928  0.0018 -0.0921  0.1282
  772POPS   GL2 8116   2.452   9.380   2.843  0.0371  0.2422  0.0126
  772POPS   C1A 8117   2.756   9.386   3.329  0.1422  0.1269  0.3514
  772POPS   D2A 8118   2.758   9.284   3.722  0.0268 -0.0018  0.2025
  772POPS   C3A 8119   2.418   9.296   3.904 -0.2077  0.1044  0.1354
  772POPS   C4A 8120   2.316   9.580   4.268  0.0511 -0.1610  0.0419
  772POPS   C1B 8121   2.190   9.305   3.273  0.1924  0.3102  0.1586
  772POPS   C2B 8122   2.004   9.400   3.596 -0.3719 -0.1513 -0.2696
  772POPS   C3B 8123   1.937   9.520   3.952 -0.0206 -0.0432  0.2198
  772POPS   C4B 8124   1.930   9.827   4.314  0.3208  0.4602  0.3102
  773CHOL   ROH 8125  15.000   8.130   2.953 -0.1133 -0.0347 -0.1141
  773CHOL    R1 8126  15.180   8.079   3.165 -0.1216 -0.0425 -0.1077
  773CHOL    R2 8127  15.170   8.217   3.405 -0.0232  0.0698 -0.1638
  773CHOL    R3 8128  15.155   7.967   3.511 -0.1561  0.1221 -0.0572
  773CHOL    R4 8129  15.216   8.140   3.739 -0.2273  0.1993 -0.1044
  773CHOL    R5 8130  15.327   7.963   3.678 -0.2497  0.1409  0.0368
  773CHOL    C1 8131  15.230   7.861   4.032 -0.4709  0.3236  0.0302
  773CHOL    C2 8132  15.080   7.836   4.409  0.0535 -0.1428 -0.2198
  774CHOL   ROH 8133   9.958  13.774   2.964  0.0367  0.1964  0.0522
  774CHOL    R1 8134   9.958  13.922   3.205 -0.0477  0.2335  0.0312
  774CHOL    R2 8135   9.777  14.123   3.257 -0.2893  0.0090  0.0791
  774CHOL    R3 8136   9.728  13.978   3.481 -0.0032 -0.0264  0.1225
  774CHOL    R4 8137   9.672  14.255   3.559 -0.3783 -0.0933  0.0939
  774CHOL    R5 8138   9.806  14.117   3.660 -0.1418  0.1170  0.0736
  774CHOL    C1 8139   9.565  14.195   3.945 -0.1615 -0.1861  0.1433
  774CHOL    C2 8140   9.407  14.234   4.256  0.0814 -0.3513  0.0168
  775CHOL   ROH 8141   3.518  13.627   2.942 -0.1107  0.1986 -0.0051
  775CHOL    R1 8142   3.564  13.504   3.193 -0.3495  0.0126 -0.0453
  775CHOL    R2 8143   3.720  13.620   3.390  0.0953 -0.4517 -0.0916
  775CHOL    R3 8144   3.499  13.582   3.542  0.0239  0.1631 -0.0066
  775CHOL    R4 8145   3.719  13.603   3.735  0.1670 -0.4717 -0.0928
  775CHOL    R5 8146   3.573  13.442   3.721 -0.3067 -0.0702 -0.0458
  775CHOL    C1 8147   3.510  13.558   4.079  0.1418  0.0939 -0.0137
  775CHOL    C2 8148   3.542  13.720   4.474  0.0803 -0.0194  0.3217
  776POPE   NH3 8149   1.969  12.024   2.774 -0.0622 -0.0274  0.0066
  776POPE   PO4 8150   2.376  11.869   2.842  0.3730 -0.1721  0.2648
  776POPE   GL1 8151   2.257  11.573   3.174 -0.0829  0.0737 -0.0735
  776POPE   GL2 8152   2.295  11.784   3.365  0.1562  0.2831  0.4190
  776POPE   C1A 8153   1.999  11.458   3.580 -0.0408  0.0494 -0.2238
  776POPE   D2A 8154   2.041  11.153   3.952  0.1164 -0.1817 -0.3825
  776POPE   C3A 8155   2.357  11.230   4.253 -0.0587 -0.1947  0.1781
  776POPE   C4A 8156   2.432  11.562   4.495 -0.0404 -0.3432  0.1756
  776POPE   C1B 8157   2.643  11.924   3.609  0.1912  0.2106 -0.0314
  776POPE   C2B 8158   2.754  12.121   4.091 -0.1576 -0.4190 -0.1065
  776POPE   C3B 8159   2.955  12.227   4.348 -0.3350  0.1261 -0.0591
  776POPE   C4B 8160   3.214  12.519   4.444 -0.2722  0.0809  0.1135
  777POSM   NC3 8161   3.799   2.883   2.793 -0.1607 -0.1057  0.0694
  777POSM   PO4 8162   4.014   2.453   2.900 -0.0028 -0.1027  0.0666
  777POSM   AM1 8163   4.038   2.060   3.129  0.0742  0.1855 -0.0545
  777POSM   AM2 8164   4.299   1.882   3.081  0.0088 -0.1403 -0.2887
  777POSM   T1A 8165   4.219   2.039   3.581 -0.1449 -0.0357  0.1684
  777POSM   C2A 8166   4.258   2.078   3.977 -0.0579  0.0895 -0.2099
  777POSM   C3A 8167   4.308   1.984   4.321  0.1526  0.2669 -0.2392
  777POSM   C1B 8168   4.627   1.720   3.396 -0.2045 -0.1613 -0.4880
  777POSM   D2B 8169   4.748   1.585   3.769 -0.2545  0.0885  0.1123
  777POSM   C3B 8170   5.267   1.455   3.822 -0.1597 -0.0203 -0.3251
  777POSM   C4B 8171   5.547   1.192   3.831 -0.2429  0.0566  0.1755
  778POSM   NC3 8172  14.365  10.034   2.354 -0.0769 -0.4125 -0.3206
  778POSM   PO4 8173  14.338  10.576   2.370  0.2380  0.1727 -0.0814
  778POSM   AM1 8174  14.722  10.655   2.739 -0.0788 -0.1186  0.1742
  778POSM   AM2 8175  14.674  10.945   2.848 -0.1061 -0.1585 -0.1402
  778POSM   T1A 8176  14.728  10.469   3.130 -0.0396 -0.2793 -0.2514
  778POSM   C2A 8177  14.654  10.460   3.517 -0.2301  0.2086 -0.3465
  778POSM   C3A 8178  14.760  10.382   3.913 -0.0915 -0.4761  0.0160
  778POSM   C1B 8179  14.568  10.981   3.299 -0.0057  0.0636 -0.0288
  778POSM   D2B 8180  14.539  10.945   3.707 -0.1201 -0.2516  0.2584
  778POSM   C3B 8181  14.444  10.911   4.117  0.1313  0.1264  0.0314
  778POSM   C4B 8182  14.164  10.671   4.338 -0.3276  0.0577  0.7090
  779CHOL   ROH 8183   2.502   3.860   2.831  0.2231  0.2575 -0.0292
  779CHOL    R1 8184   2.595   3.893   3.096  0.0933  0.1328  0.0336
  779CHOL    R2 8185   2.425   3.898   3.314 -0.0272  0.1620 -0.0587
  779CHOL    R3 8186   2.588   3.700   3.405 -0.1835  0.0476 -0.0239
  779CHOL    R4 8187   2.468   3.814   3.646  0.0623  0.3243 -0.0289
  779CHOL    R5 8188   2.680   3.788   3.607  0.0162  0.0787 -0.1267
  779CHOL    C1 8189   2.646   3.580   3.925 -0.0323  0.3115  0.0210
  779CHOL    C2 8190   2.387   3.780   4.138  0.0591 -0.1078 -0.4882
  780POPS   CNO 8191  12.074  13.971   2.700  0.0650 -0.2258  0.1047
  780POPS   PO4 8192  12.250  13.581   2.728 -0.0320 -0.2292  0.2349
  780POPS   GL1 8193  12.300  13.581   3.240  0.0377  0.0383  0.1416
  780POPS   GL2 8194  12.104  13.414   3.187  0.0016  0.0598  0.1366
  780POPS   C1A 8195  12.279  13.468   3.635 -0.1981 -0.1904 -0.0524
  780POPS   D2A 8196  12.349  13.418   4.069 -0.1134  0.2545  0.0091
  780POPS   C3A 8197  12.370  13.398   4.515 -0.0367 -0.0526 -0.2122
  780POPS   C4A 8198  12.425  13.366   4.915 -0.1505  0.1951 -0.0193
  780POPS   C1B 8199  11.942  13.143   3.473  0.0672 -0.1584  0.1092
  780POPS   C2B 8200  11.964  13.108   3.938  0.2540 -0.1841 -0.0418
  780POPS   C3B 8201  11.940  13.233   4.346 -0.2052  0.1892  0.0749
  780POPS   C4B 8202  11.950  13.279   4.830 -0.0756 -0.0069 -0.0113
  781POPC   NC3 8203   4.322  13.737   2.477 -0.3119 -0.1601 -0.1186
  781POPC   PO4 8204   3.985  13.553   2.636 -0.0165  0.0064  0.3581
  781POPC   GL1 8205   4.006  13.573   2.986 -0.3704 -0.2179  0.2657
  781POPC   GL2 8206   4.359  13.693   2.978 -0.0160 -0.1606 -0.0941
  781POPC   C1A 8207   4.259  13.440   3.389  0.0606 -0.0878  0.1291
  781POPC   D2A 8208   4.168  13.379   3.853 -0.3662 -0.1464 -0.1656
  781POPC   C3A 8209   4.282  13.334   4.363  0.0504  0.2706 -0.0063
  781POPC   C4A 8210   4.485  12.960   4.540 -0.1527 -0.0773  0.0452
  781POPC   C1B 8211   4.187  13.925   3.311  0.0757  0.0482  0.1164
  781POPC   C2B 8212   4.116  13.881   3.749 -0.0604 -0.1391 -0.0514
  781POPC   C3B 8213   4.040  13.758   4.186 -0.3645 -0.2789  0.2847
  781POPC   C4B 8214   4.138  13.856   4.611  0.0398  0.0377 -0.0601
  782POSM   NC3 8215   1.474   3.865   2.625 -0.0452  0.0865  0.1363
  782POSM   PO4 8216   1.712   4.142   2.277  0.0914  0.0650  0.2173
  782POSM   AM1 8217   1.977   4.050   2.628  0.2024  0.0124 -0.1945
  782POSM   AM2 8218   2.242   4.281   2.653  0.2409 -0.0130  0.1245
  782POSM   T1A 8219   1.961   3.993   3.068 -0.1773 -0.3817 -0.1124
  782POSM   C2A 8220   1.961   3.831   3.505  0.0830 -0.3244 -0.1938
  782POSM   C3A 8221   2.114   3.496   3.803 -0.3738  0.0290 -0.0197
  782POSM   C1B 8222   2.258   4.371   3.004  0.4539 -0.2151  0.1131
  782POSM   D2B 8223   2.145   4.358   3.340 -0.0439  0.0057  0.3823
  782POSM   C3B 8224   2.232   4.237   3.744 -0.0273  0.0708 -0.4863
  782POSM   C4B 8225   2.149   4.225   4.169 -0.2499 -0.0194  0.0892
  783POPE   NH3 8226   6.111   0.989   2.640  0.1734  0.0311  0.2641
  783POPE   PO4 8227   6.367   1.295   2.490  0.0181 -0.2984 -0.0639
  783POPE   GL1 8228   6.277   1.499   3.018 -0.0714  0.0906  0.1849
  783POPE   GL2 8229   6.308   1.226   3.123 -0.1480 -0.0834  0.0727
  783POPE   C1A 8230   6.398   1.540   3.541 -0.3280  0.3004  0.1842
  783POPE   D2A 8231   6.474   1.487   3.999  0.1004 -0.1222  0.0543
  783POPE   C3A 8232   6.232   1.574   4.339  0.0273 -0.3368 -0.2236
  783POPE   C4A 8233   5.957   1.997   4.406 -0.0999 -0.1581 -0.5342
  783POPE   C1B 8234   6.664   1.094   3.236  0.1414 -0.0085 -0.5791
  783POPE   C2B 8235   6.822   1.023   3.577  0.0706 -0.1293  0.0368
  783POPE   C3B 8236   6.791   0.900   3.959  0.0125  0.2565 -0.1632
  783POPE   C4B 8237   6.672   0.630   4.250  0.1495 -0.0636 -0.1084
  784CHOL   ROH 8238   2.319   8.929   2.966  0.0807 -0.2074 -0.1027
  784CHOL    R1 8239   2.369   8.805   3.215  0.2726 -0.0053 -0.0353
  784CHOL    R2 8240   2.553   8.903   3.396 -0.0070  0.4871  0.0010
  784CHOL    R3 8241   2.342   8.896   3.566 -0.0663  0.0728 -0.0802
  784CHOL    R4 8242   2.570   8.807   3.727  0.0646  0.5745  0.0228
  784CHOL    R5 8243   2.381   8.702   3.701  0.2877  0.1707 -0.0355
  784CHOL    C1 8244   2.381   8.745   4.080  0.0506  0.2364 -0.0408
  784CHOL    C2 8245   2.444   8.835   4.340 -0.1293  0.0356 -0.0940
  785CHOL   ROH 8246   3.478   3.268   2.932  0.2507  0.1234 -0.0237
  785CHOL    R1 8247   3.469   3.261   3.215  0.0767  0.1998 -0.0253
  785CHOL    R2 8248   3.697   3.256   3.371 -0.0138  0.1067  0.1176
  785CHOL    R3 8249   3.583   3.473   3.488  0.0384  0.2051 -0.0146
  785CHOL    R4 8250   3.760   3.362   3.694 -0.0498  0.2535  0.0762
  785CHOL    R5 8251   3.548   3.406   3.716 -0.0339  0.3379  0.0095
  785CHOL    C1 8252   3.690   3.627   3.992 -0.0217  0.4313 -0.0721
  785CHOL    C2 8253   3.774   3.861   4.335 -0.1797 -0.0335  0.0883
  786POPS   CNO 8254  13.035   2.172   2.426 -0.1709  0.0759  0.1072
  786POPS   PO4 8255  12.714   2.219   2.801  0.3612 -0.0217 -0.1396
  786POPS   GL1 8256  12.511   2.502   3.099  0.0784 -0.0956 -0.0689
  786POPS   GL2 8257  12.331   2.697   2.945  0.1219 -0.0688  0.0260
  786POPS   C1A 8258  12.715   2.710   3.377 -0.1405 -0.2151  0.0682
  786POPS   D2A 8259  12.648   3.017   3.706 -0.0444 -0.3683  0.0431
  786POPS   C3A 8260  12.814   2.801   4.004 -0.1421 -0.1767  0.1020
  786POPS   C4A 8261  13.085   2.775   4.368  0.0816  0.0726 -0.1369
  786POPS   C1B 8262  12.181   2.797   3.333  0.2385  0.0364 -0.0979
  786POPS   C2B 8263  12.077   3.101   3.565  0.1722  0.0135 -0.0737
  786POPS   C3B 8264  11.797   3.163   3.957  0.1640 -0.1753 -0.0579
  786POPS   C4B 8265  11.692   3.429   4.281  0.2132  0.0693  0.0779
  787CHOL   ROH 8266  11.285   2.614   3.137 -0.1195 -0.1615  0.0219
  787CHOL    R1 8267  11.195   2.692   3.394 -0.0672  0.0878 -0.0322
  787CHOL    R2 8268  11.290   2.577   3.626 -0.4329 -0.0981  0.0351
  787CHOL    R3 8269  11.343   2.835   3.694  0.1247 -0.1964  0.0118
  787CHOL    R4 8270  11.322   2.693   3.950 -0.4529 -0.0959  0.0351
  787CHOL    R5 8271  11.212   2.873   3.891  0.0236  0.1634 -0.1155
  787CHOL    C1 8272  11.390   3.003   4.202  0.0590 -0.1869  0.0133
  787CHOL    C2 8273  11.232   3.273   4.384 -0.0314 -0.0178 -0.1395
  788POPE   NH3 8274   0.517   3.860   2.522  0.1329  0.0270 -0.0978
  788POPE   PO4 8275   0.987   3.822   2.628  0.0663  0.0431 -0.1061
  788POPE   GL1 8276   1.155   4.062   2.935 -0.0432  0.2074  0.2132
  788POPE   GL2 8277   1.408   4.003   3.113 -0.1979 -0.0744  0.2815
  788POPE   C1A 8278   1.142   4.385   3.154  0.1637 -0.0138  0.1421
  788POPE   D2A 8279   1.188   4.564   3.525  0.0043  0.2398  0.0491
  788POPE   C3A 8280   1.132   4.726   3.872 -0.0808 -0.0844  0.1283
  788POPE   C4A 8281   1.255   4.762   4.266  0.1233 -0.1534 -0.1364
  788POPE   C1B 8282   1.259   4.079   3.482  0.3283 -0.0735 -0.1782
  788POPE   C2B 8283   1.335   4.181   3.868 -0.0641  0.1292  0.0295
  788POPE   C3B 8284   1.458   4.317   4.345  0.3966 -0.1853 -0.0026
  788POPE   C4B 8285   1.781   4.444   4.618  0.0345 -0.2955  0.1762
  789CHOL   ROH 8286   2.575  12.202   3.206 -0.2595 -0.1976  0.0775
  789CHOL    R1 8287   2.474  12.384   3.398 -0.3864 -0.2213  0.0377
  789CHOL    R2 8288   2.298  12.307   3.597 -0.0258 -0.3948  0.2991
  789CHOL    R3 8289   2.485  12.418   3.760 -0.0395  0.0969  0.0019
  789CHOL    R4 8290   2.238  12.417   3.919  0.1354 -0.2869  0.2935
  789CHOL    R5 8291   2.366  12.589   3.879 -0.2463 -0.0484  0.0183
  789CHOL    C1 8292   2.378  12.584   4.260  0.2163  0.2376  0.0114
  789CHOL    C2 8293   2.524  12.503   4.498 -0.0408 -0.1351 -0.0052
  790POPC   NC3 8294  13.069   4.530   2.126 -0.0557  0.3039 -0.2144
  790POPC   PO4 8295  13.088   4.785   2.499  0.0296 -0.0091  0.2032
  790POPC   GL1 8296  13.198   4.859   2.907 -0.2258  0.1570 -0.2960
  790POPC   GL2 8297  13.120   4.518   3.084 -0.5188 -0.2517  0.0399
  790POPC   C1A 8298  13.192   4.945   3.329  0.3640  0.1526 -0.0792
  790POPC   D2A 8299  12.936   4.830   3.692 -0.1822  0.2502  0.1630
  790POPC   C3A 8300  13.045   4.566   3.996  0.1677  0.1204 -0.0183
  790POPC   C4A 8301  12.789   4.298   4.114  0.0645 -0.0634 -0.0360
  790POPC   C1B 8302  13.139   4.404   3.504 -0.1510  0.2631 -0.0287
  790POPC   C2B 8303  13.473   4.458   3.776  0.1939 -0.1067 -0.0308
  790POPC   C3B 8304  13.522   4.577   4.193  0.0755  0.0142  0.0950
  790POPC   C4B 8305  13.895   4.454   4.411 -0.1523 -0.0121 -0.0897
  791POPE   NH3 8306   9.417   1.442   2.848  0.3333  0.4319 -0.4986
  791POPE   PO4 8307   9.055   1.796   2.746 -0.1813  0.1200 -0.4473
  791POPE   GL1 8308   9.061   1.653   3.212  0.2814 -0.0989  0.3601
  791POPE   GL2 8309   8.987   1.330   3.186  0.0900 -0.0888  0.2073
  791POPE   C1A 8310   9.130   1.508   3.598 -0.2460  0.2783 -0.0698
  791POPE   D2A 8311   8.975   1.164   3.761 -0.3330 -0.0144  0.3042
  791POPE   C3A 8312   8.840   1.163   4.179  0.3394  0.0919 -0.0484
  791POPE   C4A 8313   9.001   1.267   4.603 -0.1389 -0.1817 -0.0279
  791POPE   C1B 8314   9.206   1.055   3.309 -0.1438  0.2838  0.0213
  791POPE   C2B 8315   9.339   0.841   3.760 -0.0380 -0.0571  0.2489
  791POPE   C3B 8316   9.301   0.946   4.127  0.0997  0.2276 -0.0360
  791POPE   C4B 8317   9.082   0.690   4.454  0.2679 -0.0660  0.1239
  792CHOL   ROH 8318   1.045   6.255   2.838  0.2736  0.0957  0.0436
  792CHOL    R1 8319   1.065   6.291   3.118  0.1153 -0.0743  0.0782
  792CHOL    R2 8320   0.995   6.094   3.299  0.1305 -0.2333 -0.0820
  792CHOL    R3 8321   1.247   6.134   3.392  0.0651 -0.1566  0.0648
  792CHOL    R4 8322   1.111   5.990   3.607 -0.0231 -0.1488  0.0055
  792CHOL    R5 8323   1.218   6.179   3.625 -0.0812 -0.1227  0.0381
  792CHOL    C1 8324   1.416   5.969   3.874 -0.1740 -0.0276  0.1942
  792CHOL    C2 8325   1.649   5.973   4.247 -0.0093  0.1138  0.4696
  793POPC   NC3 8326  13.176   5.257   2.519 -0.0159 -0.3090  0.1354
  793POPC   PO4 8327  13.585   4.971   2.550 -0.1798 -0.1987 -0.0423
  793POPC   GL1 8328  13.742   5.088   3.006 -0.2127 -0.1732  0.0160
  793POPC   GL2 8329  14.034   5.248   2.969 -0.1745 -0.1325  0.1221
  793POPC   C1A 8330  13.673   5.018   3.506  0.3168 -0.3029 -0.0216
  793POPC   D2A 8331  13.481   5.032   3.994  0.1805 -0.3736  0.4278
  793POPC   C3A 8332  13.228   4.911   4.430  0.1904 -0.0297 -0.1695
  793POPC   C4A 8333  12.995   4.616   4.498  0.2099 -0.0236  0.2898
  793POPC   C1B 8334  14.153   5.210   3.408  0.0863 -0.1846  0.3528
  793POPC   C2B 8335  14.098   5.292   3.856  0.2346 -0.0505 -0.2740
  793POPC   C3B 8336  14.169   5.474   4.267  0.1832  0.1370  0.0941
  793POPC   C4B 8337  14.506   5.752   4.420  0.1065 -0.1579  0.2148
  794CHOL   ROH 8338   8.382   1.099   3.155 -0.5055  0.1554 -0.0408
  794CHOL    R1 8339   8.372   1.019   3.426 -0.2026 -0.0480 -0.0853
  794CHOL    R2 8340   8.444   1.187   3.633 -0.0994 -0.1556 -0.0325
  794CHOL    R3 8341   8.196   1.125   3.727  0.0223 -0.3615  0.1647
  794CHOL    R4 8342   8.330   1.256   3.952  0.0062  0.0050 -0.0284
  794CHOL    R5 8343   8.233   1.061   3.955  0.2328 -0.1131  0.2051
  794CHOL    C1 8344   8.032   1.238   4.226  0.1820 -0.0949  0.1591
  794CHOL    C2 8345   7.928   1.317   4.523  0.1097  0.1220  0.0431
  795CHOL   ROH 8346   3.249   2.838   2.996  0.0095  0.2574  0.0644
  795CHOL    R1 8347   3.278   2.780   3.271  0.1153  0.1449  0.0298
  795CHOL    R2 8348   3.517   2.816   3.406  0.1475  0.1565 -0.0325
  795CHOL    R3 8349   3.363   2.966   3.573  0.1575  0.0378  0.0857
  795CHOL    R4 8350   3.615   2.929   3.718  0.3092  0.2436 -0.1132
  795CHOL    R5 8351   3.415   2.884   3.791  0.4005  0.0826  0.0485
  795CHOL    C1 8352   3.527   3.135   4.056  0.4127  0.1828 -0.0492
  795CHOL    C2 8353   3.552   3.423   4.491 -0.0775 -0.0577 -0.3120
  796CHOL   ROH 8354  12.886   3.869   2.970  0.1794 -0.0524 -0.0769
  796CHOL    R1 8355  12.892   3.983   3.229  0.1968  0.0652 -0.1295
  796CHOL    R2 8356  12.704   3.922   3.423  0.2015  0.1674 -0.0980
  796CHOL    R3 8357  12.924   3.862   3.571  0.2007  0.2207 -0.0729
  796CHOL    R4 8358  12.710   3.896   3.768  0.1232 -0.0061 -0.1084
  796CHOL    R5 8359  12.902   3.997   3.768  0.0673  0.1105 -0.0073
  796CHOL    C1 8360  12.919   3.824   4.107  0.0769 -0.0570 -0.0909
  796CHOL    C2 8361  12.911   3.797   4.487 -0.0355  0.0321  0.3151
  797CHOL   ROH 8362   7.726  15.351   3.149  0.1703 -0.0896 -0.2239
  797CHOL    R1 8363   7.580  15.283   3.381  0.1696  0.0624 -0.1798
  797CHOL    R2 8364   7.509  15.024   3.442 -0.0272  0.1281 -0.1268
  797CHOL    R3 8365   7.633  15.079   3.678  0.0729  0.0603 -0.1629
  797CHOL    R4 8366   7.403  14.912   3.752 -0.0035  0.1902 -0.0959
  797CHOL    R5 8367   7.454  15.108   3.834  0.1321  0.1644 -0.1119
  797CHOL    C1 8368   7.458  14.899   4.153  0.1043  0.1628 -0.1119
  797CHOL    C2 8369   7.438  15.006   4.480  0.1814  0.1670 -0.0754
  798POPE   NH3 8370   6.101  14.002   2.561  0.0583  0.1698  0.0919
  798POPE   PO4 8371   6.220  14.449   2.349  0.2522  0.2852  0.2005
  798POPE   GL1 8372   6.359  14.733   2.560  0.4159  0.2525 -0.0122
  798POPE   GL2 8373   6.267  14.991   2.849  0.1037  0.1048 -0.5463
  798POPE   C1A 8374   6.681  14.804   2.895 -0.0115 -0.1752 -0.2622
  798POPE   D2A 8375   6.973  14.923   3.081 -0.0081  0.1068 -0.0588
  798POPE   C3A 8376   6.963  14.907   3.514  0.0077 -0.1921  0.0693
  798POPE   C4A 8377   6.965  14.756   3.916 -0.1867  0.1093 -0.0059
  798POPE   C1B 8378   6.080  15.009   3.202 -0.1907  0.0828 -0.2983
  798POPE   C2B 8379   6.020  14.951   3.584  0.3044 -0.0685 -0.1969
  798POPE   C3B 8380   6.019  14.946   4.025 -0.0577 -0.1352 -0.4703
  798POPE   C4B 8381   6.052  15.048   4.504  0.0081  0.0577  0.2019
  799POPE   NH3 8382  14.723   9.066   2.261  0.0824  0.1654 -0.0523
  799POPE   PO4 8383  14.515   9.457   2.209 -0.0463 -0.1343 -0.1015
  799POPE   GL1 8384  14.657   9.520   2.608  0.0662  0.1165  0.0104
  799POPE   GL2 8385  14.440   9.737   2.776 -0.1479 -0.0986  0.1463
  799POPE   C1A 8386  14.786   9.251   2.997  0.0407  0.1253  0.1773
  799POPE   D2A 8387  14.569   9.194   3.388  0.0559  0.0307  0.0792
  799POPE   C3A 8388  14.654   9.009   3.773  0.2835  0.0333 -0.1088
  799POPE   C4A 8389  14.545   9.040   4.243 -0.5118 -0.0527  0.0607
  799POPE   C1B 8390  14.299   9.635   3.190  0.2901  0.2139  0.0788
  799POPE   C2B 8391  14.340   9.513   3.639  0.2093 -0.1245 -0.0426
  799POPE   C3B 8392  14.226   9.244   3.932  0.1979 -0.0962  0.0279
  799POPE   C4B 8393  13.987   9.085   4.238  0.3107 -0.1084  0.1881
  800POPS   CNO 8394  10.311   1.553   2.969 -0.0096  0.0583 -0.2211
  800POPS   PO4 8395   9.895   1.375   2.772 -0.1394 -0.2736  0.0526
  800POPS   GL1 8396   9.859   1.488   3.138  0.1003 -0.3427  0.1874
  800POPS   GL2 8397   9.538   1.439   3.300 -0.0878  0.2102  0.0960
  800POPS   C1A 8398   9.974   1.374   3.516 -0.1654  0.1980  0.0347
  800POPS   D2A 8399   9.978   1.461   3.992  0.3567  0.0110  0.0381
  800POPS   C3A 8400  10.220   1.254   4.345  0.0524 -0.1268 -0.1040
  800POPS   C4A 8401  10.403   1.469   4.698 -0.0208 -0.0288 -0.0991
  800POPS   C1B 8402   9.540   1.379   3.769  0.1251 -0.1925  0.2191
  800POPS   C2B 8403   9.433   1.423   4.083 -0.1075 -0.1131 -0.0178
  800POPS   C3B 8404   9.086   1.601   4.199 -0.0505  0.1411 -0.1693
  800POPS   C4B 8405   9.021   1.745   4.554 -0.1690  0.1760  0.0141
  801POPC   NC3 8406  10.402  14.200   1.945 -0.2785 -0.0167 -0.3365
  801POPC   PO4 8407  10.294  13.930   2.361 -0.2223  0.2962 -0.0840
  801POPC   GL1 8408  10.373  13.895   2.776 -0.3021 -0.0964 -0.2278
  801POPC   GL2 8409  10.385  13.547   2.873 -0.1758 -0.0218 -0.1505
  801POPC   C1A 8410  10.449  13.991   3.220 -0.4634 -0.1592 -0.0604
  801POPC   D2A 8411  10.375  14.203   3.494  0.0281  0.2824 -0.2959
  801POPC   C3A 8412  10.312  14.075   3.952 -0.2885 -0.1381 -0.1773
  801POPC   C4A 8413  10.333  13.968   4.381  0.0680  0.0685 -0.0545
  801POPC   C1B 8414  10.318  13.570   3.297  0.1132  0.0086 -0.0067
  801POPC   C2B 8415  10.080  13.687   3.737 -0.0708 -0.0432  0.0563
  801POPC   C3B 8416   9.972  13.572   4.133  0.2856  0.2038  0.0283
  801POPC   C4B 8417   9.892  13.580   4.521  0.1373  0.0110 -0.1175
  802POPS   CNO 8418  13.773   9.919   2.537 -0.0284 -0.2726 -0.0296
  802POPS   PO4 8419  13.920  10.212   2.290  0.3805 -0.1241 -0.5785
  802POPS   GL1 8420  14.014  10.325   2.750 -0.0819 -0.3735  0.0217
  802POPS   GL2 8421  14.358  10.292   2.821  0.1056  0.0631  0.0278
  802POPS   C1A 8422  13.913  10.099   3.156  0.0658  0.0671 -0.3343
  802POPS   D2A 8423  13.957   9.887   3.514 -0.2286 -0.1508 -0.2662
  802POPS   C3A 8424  13.841   9.586   3.728  0.0692  0.0030  0.0413
  802POPS   C4A 8425  13.533   9.388   3.951 -0.0009 -0.0412 -0.1135
  802POPS   C1B 8426  14.415  10.131   3.219 -0.1328  0.0159  0.1201
  802POPS   C2B 8427  14.537   9.990   3.542  0.0483 -0.0039 -0.0544
  802POPS   C3B 8428  14.424   9.919   3.904  0.0803  0.0863  0.0491
  802POPS   C4B 8429  14.323   9.733   4.217 -0.1368  0.0290 -0.1136
  803POPS   CNO 8430  11.914  14.517   2.622 -0.0694 -0.0906  0.0378
  803POPS   PO4 8431  11.615  14.220   2.600 -0.0865 -0.1600  0.0776
  803POPS   GL1 8432  11.411  14.055   2.932 -0.0155  0.1002  0.1949
  803POPS   GL2 8433  11.275  13.651   2.802  0.0878 -0.2389 -0.0419
  803POPS   C1A 8434  11.236  13.943   3.359 -0.1612  0.1688  0.3027
  803POPS   D2A 8435  11.230  13.654   3.738  0.1932 -0.2646  0.3975
  803POPS   C3A 8436  11.349  13.819   4.094 -0.1628  0.0983  0.3304
  803POPS   C4A 8437  11.576  14.113   4.354 -0.0414 -0.4357  0.1414
  803POPS   C1B 8438  11.439  13.501   3.241  0.1405  0.1299 -0.0064
  803POPS   C2B 8439  11.528  13.323   3.563 -0.4568  0.1845  0.1556
  803POPS   C3B 8440  11.536  13.328   4.038  0.3719  0.3645 -0.1910
  803POPS   C4B 8441  11.460  13.164   4.379  0.1751  0.1920 -0.1631
  804POPS   CNO 8442  13.794   5.968   2.451  0.1205 -0.3036  0.1407
  804POPS   PO4 8443  13.944   6.263   2.272  0.0912 -0.1592  0.1871
  804POPS   GL1 8444  13.836   6.479   2.620 -0.0630 -0.1309  0.2837
  804POPS   GL2 8445  13.857   6.252   2.863 -0.0446  0.2431  0.0928
  804POPS   C1A 8446  14.045   6.701   2.860 -0.0126  0.2587 -0.4331
  804POPS   D2A 8447  14.497   6.766   3.075  0.2866 -0.0313 -0.3784
  804POPS   C3A 8448  14.534   6.632   3.591  0.3051  0.3347  0.1900
  804POPS   C4A 8449  14.498   6.558   3.950  0.3639 -0.2975  0.0065
  804POPS   C1B 8450  13.674   6.551   3.167 -0.0770  0.3288 -0.4509
  804POPS   C2B 8451  13.637   6.624   3.594  0.0470  0.3011  0.1260
  804POPS   C3B 8452  13.615   6.701   3.983 -0.3145 -0.0714  0.0212
  804POPS   C4B 8453  13.826   6.743   4.286 -0.0374 -0.1804 -0.1338
  805POPC   NC3 8454   7.655  15.072   2.312 -0.1451 -0.2295 -0.0577
  805POPC   PO4 8455   7.741  15.008   2.709  0.1466 -0.1111  0.0726
  805POPC   GL1 8456   7.529  14.839   2.993  0.0215 -0.0406  0.1981
  805POPC   GL2 8457   7.687  14.555   3.047  0.2647  0.2484  0.0115
  805POPC   C1A 8458   7.269  14.565   3.289  0.1770 -0.3013 -0.0347
  805POPC   D2A 8459   7.362  14.367   3.677 -0.1053 -0.0532  0.4595
  805POPC   C3A 8460   7.302  14.364   4.098 -0.1737 -0.2922 -0.2309
  805POPC   C4A 8461   7.049  14.557   4.394 -0.1623 -0.0650  0.0516
  805POPC   C1B 8462   7.796  14.630   3.500  0.1312  0.1105  0.0150
  805POPC   C2B 8463   7.731  14.567   3.909 -0.1761 -0.2194  0.0907
  805POPC   C3B 8464   7.917  14.484   4.327 -0.1847  0.2802  0.2187
  805POPC   C4B 8465   8.155  14.088   4.237  0.0585  0.0614 -0.0049
  806POPC   NC3 8466   1.625   8.090   2.262 -0.2206 -0.2294  0.0082
  806POPC   PO4 8467   1.852   7.787   2.589  0.1464 -0.5171  0.1349
  806POPC   GL1 8468   1.723   7.886   2.982  0.0402  0.2151 -0.1017
  806POPC   GL2 8469   1.398   7.795   3.010  0.0337 -0.1253 -0.2511
  806POPC   C1A 8470   1.601   7.479   3.336  0.0342 -0.2545  0.0452
  806POPC   D2A 8471   1.646   7.100   3.520 -0.2884 -0.0131  0.1533
  806POPC   C3A 8472   1.530   6.911   3.889  0.0126 -0.1521 -0.2967
  806POPC   C4A 8473   1.648   6.677   4.291 -0.1390  0.0646  0.0014
  806POPC   C1B 8474   1.470   7.910   3.541  0.0714  0.0076 -0.1336
  806POPC   C2B 8475   1.424   7.547   3.785  0.0006 -0.1931  0.1548
  806POPC   C3B 8476   1.337   7.308   4.113  0.2978  0.3396  0.1704
  806POPC   C4B 8477   1.443   7.151   4.454  0.0689  0.1288  0.0769
  807POPE   NH3 8478   3.535  13.937   2.367  0.2382  0.7497  0.0260
  807POPE   PO4 8479   3.976  14.014   2.254  0.2312  0.1414  0.0284
  807POPE   GL1 8480   4.053  14.224   2.560 -0.0606  0.1350 -0.1224
  807POPE   GL2 8481   3.861  14.045   2.776  0.0471  0.0986  0.1598
  807POPE   C1A 8482   4.105  14.373   3.016 -0.0735  0.2642 -0.2490
  807POPE   D2A 8483   3.944  14.501   3.373 -0.1131 -0.0904 -0.0773
  807POPE   C3A 8484   4.036  14.450   3.708  0.0815  0.3090  0.1216
  807POPE   C4A 8485   3.837  14.538   4.036  0.3055  0.0588  0.0662
  807POPE   C1B 8486   3.650  14.077   3.207 -0.0365  0.1044  0.1526
  807POPE   C2B 8487   3.675  14.081   3.629 -0.0861 -0.1246 -0.1176
  807POPE   C3B 8488   3.647  14.064   4.068 -0.0334  0.1395  0.2285
  807POPE   C4B 8489   3.790  14.236   4.509  0.0965 -0.0484  0.1352
  808CHOL   ROH 8490   7.521   1.841   2.823  0.0500  0.0078  0.0025
  808CHOL    R1 8491   7.485   1.816   3.103 -0.0303 -0.0569 -0.0135
  808CHOL    R2 8492   7.390   1.585   3.220  0.1400 -0.1587 -0.0767
  808CHOL    R3 8493   7.617   1.605   3.368  0.0678  0.0344  0.0117
  808CHOL    R4 8494   7.446   1.421   3.519  0.1446 -0.0813 -0.0345
  808CHOL    R5 8495   7.540   1.602   3.595 -0.0233  0.0035 -0.0170
  808CHOL    C1 8496   7.692   1.345   3.832  0.0795  0.1450  0.0730
  808CHOL    C2 8497   7.602   1.554   4.247 -0.3526 -0.0188  0.0263
  809CHOL   ROH 8498   0.825   5.260   2.790 -0.1162 -0.1073  0.1111
  809CHOL    R1 8499   0.622   5.334   2.974 -0.0521  0.0190  0.1311
  809CHOL    R2 8500   0.464   5.148   3.104 -0.2086  0.1206  0.0844
  809CHOL    R3 8501   0.552   5.277   3.326 -0.0978 -0.0098  0.1183
  809CHOL    R4 8502   0.332   5.107   3.421 -0.2160  0.1146  0.0808
  809CHOL    R5 8503   0.352   5.322   3.452 -0.0595  0.0942  0.1462
  809CHOL    C1 8504   0.338   5.204   3.814 -0.1163 -0.0111  0.1106
  809CHOL    C2 8505   0.339   5.122   4.131  0.0616 -0.0097 -0.0472
  810POPE   NH3 8506   5.349  13.918   2.739  0.1932  0.0603 -0.1470
  810POPE   PO4 8507   5.573  14.226   2.544 -0.1870  0.1737 -0.0665
  810POPE   GL1 8508   5.624  14.308   3.015  0.0956 -0.2545 -0.1189
  810POPE   GL2 8509   5.714  14.555   3.096 -0.3450 -0.2844 -0.2297
  810POPE   C1A 8510   5.429  14.198   3.407 -0.3158 -0.0874  0.1675
  810POPE   D2A 8511   5.420  14.253   3.805  0.2759  0.0245  0.0220
  810POPE   C3A 8512   5.446  14.064   4.129 -0.1225 -0.0388  0.2366
  810POPE   C4A 8513   5.409  13.915   4.565  0.1472  0.2121 -0.1546
  810POPE   C1B 8514   5.757  14.586   3.429  0.3149 -0.1181 -0.0882
  810POPE   C2B 8515   5.564  14.710   3.800 -0.0858  0.1196  0.0266
  810POPE   C3B 8516   5.460  15.007   4.039 -0.2524  0.2329 -0.0809
  810POPE   C4B 8517   5.613  15.290   4.361  0.0636 -0.0203 -0.0916
  811POPE   NH3 8518   5.687   2.391   2.566 -0.1471  0.4776  0.1230
  811POPE   PO4 8519   5.692   1.898   2.568 -0.3239 -0.1813  0.1512
  811POPE   GL1 8520   5.646   1.784   2.978  0.1057  0.0896 -0.1897
  811POPE   GL2 8521   5.321   1.724   3.056 -0.0618  0.2602 -0.1947
  811POPE   C1A 8522   5.625   1.757   3.552 -0.0179  0.4188  0.0168
  811POPE   D2A 8523   5.685   1.811   3.999 -0.1385 -0.0188  0.1700
  811POPE   C3A 8524   5.634   1.553   4.359  0.3072 -0.4226  0.0907
  811POPE   C4A 8525   5.537   1.239   4.660 -0.3841  0.1360  0.1349
  811POPE   C1B 8526   5.122   1.835   3.491 -0.1262  0.2165 -0.1416
  811POPE   C2B 8527   5.215   2.038   3.883  0.0297  0.1587 -0.0575
  811POPE   C3B 8528   5.234   1.925   4.146  0.1035  0.4673 -0.4477
  811POPE   C4B 8529   4.994   2.004   4.550  0.1170 -0.0184 -0.2486
  812POPE   NH3 8530  13.471   3.265   2.371  0.1701  0.0854  0.1495
  812POPE   PO4 8531  13.679   2.939   2.249  0.1600  0.0382 -0.0023
  812POPE   GL1 8532  13.457   2.755   2.583  0.2215 -0.1383  0.2303
  812POPE   GL2 8533  13.342   2.992   2.798  0.0460  0.3393  0.0101
  812POPE   C1A 8534  13.310   2.496   2.910  0.0065 -0.1731  0.0540
  812POPE   D2A 8535  12.970   2.315   3.243 -0.1325 -0.0032  0.0840
  812POPE   C3A 8536  13.030   2.463   3.680  0.0498  0.0464 -0.0624
  812POPE   C4A 8537  13.264   2.588   3.922  0.1985 -0.0578 -0.0786
  812POPE   C1B 8538  13.144   2.940   3.239  0.0037 -0.1488 -0.2886
  812POPE   C2B 8539  13.136   2.915   3.586  0.0532  0.0197 -0.1181
  812POPE   C3B 8540  13.242   3.053   3.976  0.2058 -0.2787  0.1314
  812POPE   C4B 8541  12.938   3.243   4.206  0.1865 -0.1632  0.1002
  813CHOL   ROH 8542  10.589   1.739   3.416 -0.2423 -0.1149  0.0608
  813CHOL    R1 8543  10.647   1.761   3.692 -0.0836  0.0019  0.0187
  813CHOL    R2 8544  10.780   1.563   3.833 -0.1643 -0.0183  0.0619
  813CHOL    R3 8545  10.946   1.768   3.900  0.0306 -0.1059 -0.1369
  813CHOL    R4 8546  10.963   1.583   4.125 -0.0875  0.0504  0.0105
  813CHOL    R5 8547  10.915   1.795   4.135  0.0984  0.1064 -0.1481
  813CHOL    C1 8548  11.224   1.786   4.359  0.1401  0.0081 -0.2062
  813CHOL    C2 8549  11.488   1.807   4.650 -0.0262 -0.4456  0.0558
  814CHOL   ROH 8550  14.045  11.797   2.778 -0.0507 -0.0842  0.0435
  814CHOL    R1 8551  14.197  11.914   2.986  0.0344 -0.0906 -0.0139
  814CHOL    R2 8552  14.243  12.186   3.002  0.0686 -0.0943 -0.0410
  814CHOL    R3 8553  14.139  12.156   3.252  0.1527 -0.0719 -0.0037
  814CHOL    R4 8554  14.274  12.416   3.259  0.1302 -0.0520 -0.0872
  814CHOL    R5 8555  14.304  12.250   3.397  0.1932 -0.0321 -0.0725
  814CHOL    C1 8556  14.196  12.521   3.643  0.2450 -0.0062 -0.0790
  814CHOL    C2 8557  14.350  12.394   3.946 -0.1068  0.2843  0.2952
  815POPC   NC3 8558   3.148  12.467   2.589 -0.0151  0.1246  0.0015
  815POPC   PO4 8559   2.765  12.708   2.698 -0.0903  0.3415  0.2288
  815POPC   GL1 8560   2.857  12.586   3.092 -0.0331 -0.1583 -0.3073
  815POPC   GL2 8561   3.050  12.381   3.222  0.1568  0.0769  0.0472
  815POPC   C1A 8562   2.773  12.742   3.500  0.3225 -0.0377  0.1884
  815POPC   D2A 8563   2.822  13.059   3.826  0.0008  0.1927  0.1029
  815POPC   C3A 8564   2.659  13.183   4.261 -0.0051  0.3061  0.3429
  815POPC   C4A 8565   2.425  13.394   4.589  0.1216  0.3006 -0.2668
  815POPC   C1B 8566   3.262  12.754   3.286 -0.3016  0.2795 -0.0571
  815POPC   C2B 8567   3.331  12.963   3.558  0.0723  0.2182  0.4449
  815POPC   C3B 8568   3.354  13.036   3.991  0.2063  0.2221  0.0852
  815POPC   C4B 8569   3.359  13.212   4.438 -0.2078 -0.2871  0.1605
  816CHOL   ROH 8570  12.307  12.973   2.969 -0.0568 -0.2179  0.0685
  816CHOL    R1 8571  12.426  12.900   3.216  0.0217 -0.1556  0.0489
  816CHOL    R2 8572  12.509  13.088   3.402 -0.0186 -0.1118  0.0217
  816CHOL    R3 8573  12.350  12.943   3.569  0.0740 -0.1680  0.0626
  816CHOL    R4 8574  12.544  13.072   3.746 -0.0461  0.0654  0.0337
  816CHOL    R5 8575  12.499  12.859   3.736  0.1237  0.0218  0.1177
  816CHOL    C1 8576  12.416  12.927   4.102  0.0249  0.1159  0.0790
  816CHOL    C2 8577  12.648  13.069   4.268  0.3611 -0.1973  0.2144
  817CHOL   ROH 8578  15.014  11.355   2.934  0.0858 -0.1769 -0.0278
  817CHOL    R1 8579  15.103  11.328   3.202 -0.1128  0.0812  0.0666
  817CHOL    R2 8580  14.946  11.399   3.418 -0.4447 -0.1044 -0.0997
  817CHOL    R3 8581  14.998  11.145   3.498 -0.0735  0.0087  0.0368
  817CHOL    R4 8582  14.911  11.282   3.741 -0.5004 -0.0442 -0.0844
  817CHOL    R5 8583  15.095  11.169   3.716 -0.2840  0.2564  0.1043
  817CHOL    C1 8584  14.939  10.975   4.005 -0.1845  0.0970  0.0527
  817CHOL    C2 8585  15.118  10.801   4.299 -0.2499 -0.2962 -0.0217
  818CHOL   ROH 8586   3.521   2.456   3.092  0.1483  0.1432 -0.1482
  818CHOL    R1 8587   3.610   2.349   3.338  0.1369 -0.0416 -0.2241
  818CHOL    R2 8588   3.873   2.366   3.421  0.1066 -0.0018 -0.1502
  818CHOL    R3 8589   3.762   2.477   3.643  0.0106 -0.2528 -0.0676
  818CHOL    R4 8590   4.051   2.481   3.694  0.0529  0.2907 -0.2346
  818CHOL    R5 8591   3.897   2.397   3.824  0.2779 -0.0346 -0.1562
  818CHOL    C1 8592   4.050   2.653   4.061 -0.0685  0.2254 -0.2062
  818CHOL    C2 8593   3.945   2.910   4.212 -0.0460  0.1231  0.0951
  819POSM   NC3 8594   8.908  14.232   2.546 -0.2772 -0.1665  0.0662
  819POSM   PO4 8595   9.352  14.128   2.649  0.1714 -0.0450  0.1811
  819POSM   AM1 8596   9.318  14.119   3.008  0.0144 -0.2959  0.2074
  819POSM   AM2 8597   9.043  13.917   3.057 -0.0266 -0.2831  0.1730
  819POSM   T1A 8598   9.289  14.497   3.346  0.1077  0.0017  0.0462
  819POSM   C2A 8599   9.476  14.623   3.753  0.2492 -0.4263  0.0573
  819POSM   C3A 8600   9.627  14.724   4.191  0.1845  0.0440 -0.0101
  819POSM   C1B 8601   8.829  14.268   3.260  0.3358 -0.0226  0.2951
  819POSM   D2B 8602   8.754  14.651   3.209  0.1254 -0.0060  0.3314
  819POSM   C3B 8603   8.990  14.958   3.359  0.0680 -0.1921  0.0172
  819POSM   C4B 8604   9.128  15.089   3.779  0.2663  0.0604  0.0592
  820POPE   NH3 8605  14.639   8.330   2.638  0.1220 -0.1661 -0.5106
  820POPE   PO4 8606  14.792   7.835   2.542  0.0271  0.1460  0.0542
  820POPE   GL1 8607  15.130   7.632   2.766  0.0285 -0.1202  0.1536
  820POPE   GL2 8608  14.984   7.596   2.999  0.3882  0.0360 -0.1445
  820POPE   C1A 8609  15.496   7.719   3.054  0.0712 -0.0164  0.0465
  820POPE   D2A 8610  15.619   7.913   3.294 -0.1203 -0.2424  0.1734
  820POPE   C3A 8611  15.919   8.010   3.281  0.1302  0.2069  0.0750
  820POPE   C4A 8612  16.337   8.046   3.118  0.2291  0.2268  0.0074
  820POPE   C1B 8613  14.864   7.601   3.382  0.0204  0.1770  0.0912
  820POPE   C2B 8614  14.862   7.553   3.801 -0.0739 -0.3107 -0.0239
  820POPE   C3B 8615  14.898   7.360   4.209 -0.2242  0.0127 -0.1517
  820POPE   C4B 8616  15.014   7.037   4.476 -0.0432 -0.1797  0.0948
  821POPC   NC3 8617  11.010   2.253   2.422  0.1039 -0.1535 -0.0719
  821POPC   PO4 8618  11.110   2.078   2.853  0.0585 -0.1150  0.0374
  821POPC   GL1 8619  11.431   2.033   3.198  0.2089  0.2954 -0.3173
  821POPC   GL2 8620  11.350   2.192   3.402  0.2143 -0.0051 -0.0268
  821POPC   C1A 8621  11.781   1.901   3.485  0.0904  0.0296 -0.1354
  821POPC   D2A 8622  12.111   1.813   3.781  0.1434 -0.0406  0.2205
  821POPC   C3A 8623  12.057   1.653   4.203  0.2274  0.3964 -0.0328
  821POPC   C4A 8624  12.092   1.605   4.591 -0.1471  0.0527 -0.3067
  821POPC   C1B 8625  11.584   2.247   3.812  0.1778 -0.0372 -0.2805
  821POPC   C2B 8626  11.991   2.248   4.005 -0.1434 -0.1066  0.0115
  821POPC   C3B 8627  12.345   2.498   4.232  0.0626  0.1203 -0.0690
  821POPC   C4B 8628  12.630   2.508   4.560 -0.2874  0.3493  0.2037
  822POPS   CNO 8629   6.803   1.578   2.301  0.2893  0.0647  0.0707
  822POPS   PO4 8630   6.775   1.931   2.633  0.3450  0.0945 -0.0099
  822POPS   GL1 8631   6.972   1.880   3.025  0.0941 -0.3199 -0.2541
  822POPS   GL2 8632   7.095   2.122   3.147  0.0026  0.0936 -0.3395
  822POPS   C1A 8633   6.884   1.569   3.330 -0.0857 -0.2103 -0.3177
  822POPS   D2A 8634   6.978   1.458   3.690  0.1758  0.2030  0.3979
  822POPS   C3A 8635   7.203   1.140   3.881 -0.0158  0.1625 -0.0872
  822POPS   C4A 8636   7.495   0.973   4.176 -0.6896 -0.2935 -0.0696
  822POPS   C1B 8637   7.231   1.939   3.515 -0.1706 -0.2453  0.1110
  822POPS   C2B 8638   7.185   1.770   3.972  0.1839 -0.1191  0.0843
  822POPS   C3B 8639   6.987   1.488   4.207 -0.1151 -0.0094  0.3218
  822POPS   C4B 8640   7.033   1.000   4.440  0.1821  0.2356  0.3020
  823CHOL   ROH 8641   5.087  14.292   2.967 -0.1855  0.0492 -0.1211
  823CHOL    R1 8642   4.911  14.395   3.163 -0.2897 -0.0148 -0.1771
  823CHOL    R2 8643   4.686  14.259   3.246 -0.0796 -0.2714  0.0084
  823CHOL    R3 8644   4.794  14.293   3.493 -0.0576  0.1262 -0.0507
  823CHOL    R4 8645   4.506  14.258   3.541  0.0000 -0.1738  0.0567
  823CHOL    R5 8646   4.631  14.423   3.611 -0.1846  0.0549 -0.1488
  823CHOL    C1 8647   4.504  14.289   3.945  0.0670  0.2562  0.0292
  823CHOL    C2 8648   4.181  14.251   4.165 -0.1183  0.1870 -0.1477
  824POPC   NC3 8649   1.299  10.791   2.578  0.1292  0.2895 -0.1370
  824POPC   PO4 8650   0.881  10.612   2.550 -0.1803  0.0776 -0.2305
  824POPC   GL1 8651   1.067  10.607   2.945  0.2559 -0.0832 -0.1273
  824POPC   GL2 8652   1.323  10.959   3.047 -0.1197  0.4153  0.0796
  824POPC   C1A 8653   1.186  10.235   3.311 -0.1508 -0.0177  0.1045
  824POPC   D2A 8654   1.216  10.004   3.633  0.3147  0.3155 -0.3195
  824POPC   C3A 8655   0.962   9.972   3.936  0.2764  0.3816 -0.2022
  824POPC   C4A 8656   0.602  10.306   4.110 -0.1797 -0.1136 -0.0795
  824POPC   C1B 8657   1.218  10.683   3.497 -0.0155  0.2352  0.1791
  824POPC   C2B 8658   1.210  10.519   3.866  0.0599  0.1343 -0.0784
  824POPC   C3B 8659   1.373  10.306   4.123  0.1595  0.2071 -0.0146
  824POPC   C4B 8660   1.631   9.941   3.983  0.3051 -0.1500 -0.0317
  825CHOL   ROH 8661   0.031  11.670   3.030  0.0388  0.0774  0.0789
  825CHOL    R1 8662   0.071  11.632   3.308 -0.0393 -0.0714  0.0700
  825CHOL    R2 8663  -0.118  11.705   3.497  0.0029  0.0373  0.0658
  825CHOL    R3 8664  -0.090  11.446   3.575 -0.2608 -0.0222 -0.0258
  825CHOL    R4 8665  -0.150  11.592   3.822  0.0643 -0.0090  0.0568
  825CHOL    R5 8666   0.019  11.459   3.788 -0.1107 -0.2083 -0.0858
  825CHOL    C1 8667  -0.144  11.283   4.085 -0.1474 -0.0918 -0.0344
  825CHOL    C2 8668   0.049  11.578   4.362 -0.0671 -0.2321 -0.1217
  826POSM   NC3 8669   2.044   9.980   1.743 -0.2796 -0.0049 -0.0471
  826POSM   PO4 8670   1.893  10.027   2.110  0.4037 -0.0224  0.0431
  826POSM   AM1 8671   1.783  10.238   2.474  0.3460 -0.1516  0.0115
  826POSM   AM2 8672   1.996  10.201   2.674  0.4187  0.2527  0.0795
  826POSM   T1A 8673   1.623  10.476   2.879 -0.1713  0.0172 -0.0241
  826POSM   C2A 8674   1.793  10.651   3.250  0.0964 -0.2927 -0.0281
  826POSM   C3A 8675   2.074  10.961   3.453  0.0677 -0.0199 -0.0770
  826POSM   C1B 8676   2.088  10.181   3.029 -0.3251 -0.2069  0.0614
  826POSM   D2B 8677   2.102  10.175   3.513 -0.3414 -0.0816  0.1224
  826POSM   C3B 8678   1.924   9.864   3.599 -0.0894 -0.0294  0.0259
  826POSM   C4B 8679   1.575   9.608   3.586  0.0551  0.1348 -0.0031
  827CHOL   ROH 8680  12.979  13.557   2.770  0.1268 -0.0709  0.0192
  827CHOL    R1 8681  12.828  13.575   3.009  0.1103 -0.0002  0.0028
  827CHOL    R2 8682  12.829  13.377   3.201  0.0113  0.0081  0.0088
  827CHOL    R3 8683  12.897  13.583   3.366  0.0763 -0.0134  0.0105
  827CHOL    R4 8684  12.822  13.365   3.547 -0.2448  0.0860  0.0088
  827CHOL    R5 8685  12.742  13.567   3.547 -0.0699  0.1604 -0.0939
  827CHOL    C1 8686  12.881  13.551   3.902 -0.3328  0.1111  0.0105
  827CHOL    C2 8687  12.744  13.557   4.271 -0.1370 -0.0012  0.2327
  828POSM   NC3 8688   2.548  10.765   2.028 -0.1074 -0.2809 -0.0469
  828POSM   PO4 8689   2.322  10.887   2.446 -0.0726 -0.0722  0.2393
  828POSM   AM1 8690   2.196  10.979   2.797  0.3354  0.2931 -0.0922
  828POSM   AM2 8691   2.111  10.709   2.921 -0.0761 -0.1885 -0.2406
  828POSM   T1A 8692   1.799  11.117   3.057 -0.1050 -0.1020 -0.2726
  828POSM   C2A 8693   1.564  11.090   3.452  0.0748 -0.2959 -0.1846
  828POSM   C3A 8694   1.670  10.804   3.756  0.1523  0.1880 -0.0179
  828POSM   C1B 8695   2.377  10.631   3.279 -0.2226 -0.1856 -0.2073
  828POSM   D2B 8696   2.267  10.654   3.723 -0.0238 -0.2086 -0.0985
  828POSM   C3B 8697   1.939  10.423   3.989 -0.2126  0.2495  0.1681
  828POSM   C4B 8698   1.788  10.330   4.428 -0.2245 -0.0791  0.1557
  829CHOL   ROH 8699  14.945  10.191   2.693  0.0328 -0.1713 -0.0544
  829CHOL    R1 8700  14.832   9.986   2.852 -0.0060 -0.1097 -0.0037
  829CHOL    R2 8701  14.984   9.786   2.968 -0.0342 -0.0559  0.1165
  829CHOL    R3 8702  14.862   9.871   3.196 -0.1001  0.0276  0.0523
  829CHOL    R4 8703  14.966   9.605   3.262 -0.0635  0.0726  0.1961
  829CHOL    R5 8704  14.761   9.674   3.286 -0.0850  0.0471  0.1199
  829CHOL    C1 8705  14.842   9.579   3.647 -0.1425  0.2258  0.1823
  829CHOL    C2 8706  14.745   9.481   3.998 -0.0549  0.0147 -0.0068
  830CHOL   ROH 8707  11.063   1.706   3.237 -0.0820  0.0102  0.0361
  830CHOL    R1 8708  11.128   1.672   3.510 -0.1535  0.0228  0.0564
  830CHOL    R2 8709  11.382   1.600   3.595 -0.2076 -0.1210  0.1192
  830CHOL    R3 8710  11.358   1.824   3.748 -0.1006 -0.0724  0.0638
  830CHOL    R4 8711  11.582   1.676   3.866 -0.0417 -0.0365 -0.0260
  830CHOL    R5 8712  11.405   1.749   3.971  0.0312  0.0033  0.0576
  830CHOL    C1 8713  11.677   1.930   4.168  0.1553  0.0583 -0.1627
  830CHOL    C2 8714  11.911   2.089   4.458 -0.0255  0.1847  0.3983
  831POPE   NH3 8715   0.261   7.176   2.208 -0.0122  0.0985 -0.0347
  831POPE   PO4 8716   0.528   7.563   2.233 -0.2034  0.1020  0.0158
  831POPE   GL1 8717   0.526   7.201   2.663 -0.0940 -0.1057 -0.0462
  831POPE   GL2 8718   0.380   7.439   2.748  0.0084 -0.0533 -0.0512
  831POPE   C1A 8719   0.847   7.220   2.918  0.1921  0.3079  0.1164
  831POPE   D2A 8720   1.125   7.395   3.167 -0.1458 -0.1637  0.0575
  831POPE   C3A 8721   1.057   7.672   3.361  0.0719  0.0227 -0.0091
  831POPE   C4A 8722   0.941   7.962   3.703 -0.2470 -0.0418 -0.4108
  831POPE   C1B 8723   0.607   7.583   3.110 -0.1033 -0.0241 -0.1675
  831POPE   C2B 8724   0.466   7.592   3.599 -0.1603 -0.2691  0.4402
  831POPE   C3B 8725   0.409   7.274   3.947 -0.0921  0.1993 -0.2921
  831POPE   C4B 8726   0.383   7.277   4.417 -0.1295  0.3381  0.1089
  832CHOL   ROH 8727  10.712  14.406   3.189 -0.0788  0.0575  0.0155
  832CHOL    R1 8728  10.859  14.287   3.399 -0.0249  0.0292 -0.0352
  832CHOL    R2 8729  10.844  14.376   3.660  0.1689  0.1065 -0.0385
  832CHOL    R3 8730  10.784  14.116   3.711  0.0482  0.1524  0.0473
  832CHOL    R4 8731  10.844  14.230   3.974  0.1903  0.1683 -0.0110
  832CHOL    R5 8732  10.934  14.052   3.886  0.0625  0.1068  0.0080
  832CHOL    C1 8733  10.788  13.901   4.204  0.0894  0.2473  0.0854
  832CHOL    C2 8734  10.938  13.867   4.430 -0.0561  0.1552  0.1674
  833CHOL   ROH 8735  13.660   1.927   2.868 -0.2739 -0.2427  0.0226
  833CHOL    R1 8736  13.688   2.095   3.094 -0.0354 -0.1986 -0.0366
  833CHOL    R2 8737  13.475   2.162   3.257  0.0562  0.1572 -0.0531
  833CHOL    R3 8738  13.637   2.066   3.453 -0.0714 -0.0019 -0.0249
  833CHOL    R4 8739  13.479   2.276   3.583  0.2823  0.3280 -0.1136
  833CHOL    R5 8740  13.697   2.259   3.581  0.2590 -0.0253 -0.1364
  833CHOL    C1 8741  13.634   2.251   3.957  0.2942  0.2780 -0.1223
  833CHOL    C2 8742  13.819   2.137   4.157 -0.1669 -0.2431 -0.5857
  834POSM   NC3 8743   0.960   5.724   1.894  0.0082  0.1292 -0.4091
  834POSM   PO4 8744   0.803   5.591   2.336  0.1441 -0.0519  0.0301
  834POSM   AM1 8745   0.543   5.720   2.655  0.0588 -0.2083  0.1640
  834POSM   AM2 8746   0.669   5.896   2.850 -0.3497  0.2301  0.3967
  834POSM   T1A 8747   0.219   6.106   2.966 -0.5939  0.0779 -0.2164
  834POSM   C2A 8748  -0.018   6.495   3.067 -0.0133 -0.0383 -0.2382
  834POSM   C3A 8749  -0.076   6.781   3.252  0.0839 -0.0054  0.1865
  834POSM   C1B 8750   0.574   5.817   3.220 -0.0138  0.0515  0.4140
  834POSM   D2B 8751   0.602   6.161   3.554  0.1651 -0.1190 -0.3382
  834POSM   C3B 8752   0.481   6.078   3.978 -0.1764 -0.0954  0.1282
  834POSM   C4B 8753   0.342   6.071   4.337 -0.2017  0.3083 -0.1496
  835POSM   NC3 8754   2.524   8.970   2.521  0.1041 -0.0471 -0.1917
  835POSM   PO4 8755   2.265   8.736   2.399  0.0892  0.0701  0.1165
  835POSM   AM1 8756   1.959   8.661   2.739  0.1408 -0.3098 -0.1070
  835POSM   AM2 8757   1.648   8.978   2.684 -0.0308  0.0777 -0.0563
  835POSM   T1A 8758   1.891   8.755   3.163 -0.0610  0.0375 -0.0807
  835POSM   C2A 8759   1.854   8.813   3.536  0.2220  0.1679 -0.2017
  835POSM   C3A 8760   1.913   8.752   3.937 -0.2326  0.0442 -0.3046
  835POSM   C1B 8761   1.836   9.399   2.958 -0.3145  0.1844 -0.2431
  835POSM   D2B 8762   1.842   9.701   3.178 -0.0750 -0.1179  0.1309
  835POSM   C3B 8763   1.638  10.154   3.254 -0.2148 -0.0496 -0.0621
  835POSM   C4B 8764   1.585  10.353   3.579  0.0055  0.2170 -0.3255
  836CHOL   ROH 8765   1.019   3.607   3.096  0.2138 -0.0842  0.0345
  836CHOL    R1 8766   0.968   3.546   3.368  0.1387 -0.1087  0.0154
  836CHOL    R2 8767   1.156   3.583   3.567  0.0378  0.0007  0.0895
  836CHOL    R3 8768   0.958   3.729   3.683 -0.0909 -0.1087  0.0095
  836CHOL    R4 8769   1.168   3.714   3.886 -0.0631  0.2066  0.0111
  836CHOL    R5 8770   0.959   3.659   3.912 -0.0149  0.0294  0.0550
  836CHOL    C1 8771   0.988   3.927   4.181 -0.2428  0.2238 -0.1098
  836CHOL    C2 8772   1.335   3.820   4.376  0.1147  0.3314 -0.0708
  837POPE   NH3 8773   2.057   3.115   2.541  0.0858 -0.2130 -0.3843
  837POPE   PO4 8774   1.639   3.235   2.457  0.0543 -0.1694 -0.0891
  837POPE   GL1 8775   1.603   3.427   2.833  0.0830  0.0514 -0.0054
  837POPE   GL2 8776   1.927   3.599   2.825  0.1522  0.2603  0.1126
  837POPE   C1A 8777   1.632   3.580   3.280  0.4932 -0.0039  0.2164
  837POPE   D2A 8778   1.621   3.575   3.756  0.1937  0.0459  0.1959
  837POPE   C3A 8779   1.765   3.841   4.004 -0.0613 -0.0535 -0.2577
  837POPE   C4A 8780   1.833   3.949   4.428  0.0168  0.1173 -0.1184
  837POPE   C1B 8781   2.179   3.510   3.183 -0.0486  0.3757 -0.1863
  837POPE   C2B 8782   2.375   3.251   3.455 -0.0256 -0.0845 -0.0660
  837POPE   C3B 8783   2.408   3.127   3.885  0.0956  0.0724 -0.2343
  837POPE   C4B 8784   2.223   3.269   4.252  0.1995  0.0667 -0.2159
  838POPC   NC3 8785   1.557  12.668   2.501  0.2002 -0.0280  0.1061
  838POPC   PO4 8786   1.913  12.535   2.716  0.1335  0.0872 -0.1747
  838POPC   GL1 8787   2.188  12.533   3.021  0.2853 -0.1245  0.2708
  838POPC   GL2 8788   1.910  12.354   3.154 -0.0708 -0.0439 -0.2179
  838POPC   C1A 8789   2.221  12.802   3.260  0.0273 -0.2326  0.0536
  838POPC   D2A 8790   2.077  12.925   3.745 -0.1929 -0.3509 -0.0135
  838POPC   C3A 8791   2.148  13.068   4.143  0.1500 -0.2797 -0.3950
  838POPC   C4A 8792   1.848  13.305   4.440 -0.0106 -0.0079 -0.2860
  838POPC   C1B 8793   1.854  12.533   3.574 -0.2182 -0.1252  0.0776
  838POPC   C2B 8794   1.760  12.453   3.841 -0.1083  0.3720 -0.0523
  838POPC   C3B 8795   1.911  12.178   4.167  0.2904 -0.2837  0.1187
  838POPC   C4B 8796   2.272  12.059   4.375  0.1053 -0.1198  0.3810
  839POPC   NC3 8797   9.294  15.084   2.350 -0.0270  0.2851 -0.1464
  839POPC   PO4 8798   9.087  15.420   2.622  0.2177 -0.0203 -0.2602
  839POPC   GL1 8799   9.098  15.182   2.926 -0.0177  0.0940 -0.2033
  839POPC   GL2 8800   9.331  15.031   3.020 -0.0829  0.0665  0.1028
  839POPC   C1A 8801   9.295  15.411   3.411 -0.1138  0.1485  0.0799
  839POPC   D2A 8802   9.472  15.484   3.830 -0.4203  0.1144  0.0207
  839POPC   C3A 8803   9.544  15.143   4.033 -0.0696  0.1115 -0.0110
  839POPC   C4A 8804   9.170  14.950   4.274  0.0552 -0.0627 -0.2878
  839POPC   C1B 8805   9.636  14.925   3.330 -0.0214 -0.0537 -0.1880
  839POPC   C2B 8806   9.965  14.686   3.547 -0.0605  0.0097  0.0493
  839POPC   C3B 8807  10.014  14.476   3.926 -0.0623 -0.0844  0.0981
  839POPC   C4B 8808   9.923  14.154   4.256  0.0573 -0.0379 -0.0481
  840POPC   NC3 8809  15.336   8.849   2.320 -0.3188 -0.1192  0.3260
  840POPC   PO4 8810  14.987   8.755   2.554  0.0740 -0.0561  0.0071
  840POPC   GL1 8811  15.081   8.616   2.948  0.0980 -0.1298  0.0657
  840POPC   GL2 8812  15.312   8.518   2.968 -0.4233  0.3181 -0.2017
  840POPC   C1A 8813  14.900   8.728   3.374  0.0317  0.0305  0.0635
  840POPC   D2A 8814  15.085   8.673   3.743 -0.1729 -0.3708  0.0270
  840POPC   C3A 8815  14.953   8.635   4.195  0.1539 -0.0176  0.0164
  840POPC   C4A 8816  15.109   8.334   4.393 -0.2910 -0.0085  0.1019
  840POPC   C1B 8817  15.399   8.785   3.367 -0.1128  0.5230  0.1906
  840POPC   C2B 8818  15.570   9.035   3.675  0.0181 -0.0358  0.0563
  840POPC   C3B 8819  15.666   9.073   4.110 -0.1114  0.1808  0.4102
  840POPC   C4B 8820  15.360   8.859   4.368  0.4297 -0.0546  0.0554
  841CHOL   ROH 8821   0.635   3.936   3.064 -0.1586  0.1225 -0.0370
  841CHOL    R1 8822   0.796   4.021   3.281 -0.0882  0.1296 -0.0915
  841CHOL    R2 8823   0.770   4.270   3.398 -0.0611  0.1271 -0.0802
  841CHOL    R3 8824   0.742   4.124   3.625  0.0254  0.1246 -0.0714
  841CHOL    R4 8825   0.769   4.402   3.717  0.0595  0.1280 -0.0802
  841CHOL    R5 8826   0.888   4.231   3.782  0.0859  0.1262 -0.1264
  841CHOL    C1 8827   0.742   4.341   4.117  0.2110  0.1262 -0.0719
  841CHOL    C2 8828   0.905   4.431   4.346 -0.0757  0.0076 -0.3509
  842POPE   NH3 8829   3.605  13.252   2.565 -0.0693 -0.1045  0.5240
  842POPE   PO4 8830   3.292  12.980   2.553 -0.0044  0.0079 -0.4094
  842POPE   GL1 8831   3.190  13.208   2.897  0.1106  0.0252 -0.1537
  842POPE   GL2 8832   3.016  13.525   2.879  0.1134 -0.0617  0.1377
  842POPE   C1A 8833   3.087  13.284   3.300  0.0524  0.1118 -0.1734
  842POPE   D2A 8834   3.044  13.531   3.599 -0.0423 -0.0523  0.0093
  842POPE   C3A 8835   3.044  13.435   4.080 -0.2381 -0.1118 -0.1157
  842POPE   C4A 8836   2.918  13.579   4.497  0.0322 -0.0543  0.0472
  842POPE   C1B 8837   3.139  13.811   3.190  0.0716  0.1506  0.0468
  842POPE   C2B 8838   3.237  14.003   3.456 -0.3791 -0.4472 -0.0632
  842POPE   C3B 8839   3.203  13.961   3.852 -0.0954  0.1657  0.0292
  842POPE   C4B 8840   3.232  14.095   4.345 -0.1540  0.0529 -0.0731
  843POSM   NC3 8841  14.827  10.521   2.269 -0.2199 -0.0014 -0.1204
  843POSM   PO4 8842  15.115  10.749   2.061  0.2042  0.2749 -0.0409
  843POSM   AM1 8843  15.216  10.722   2.509 -0.0459 -0.1747  0.1385
  843POSM   AM2 8844  15.153  10.924   2.637 -0.5167 -0.3138 -0.0573
  843POSM   T1A 8845  15.532  10.730   2.908 -0.0224  0.0197 -0.1285
  843POSM   C2A 8846  15.691  10.520   3.338  0.1730  0.1300  0.4076
  843POSM   C3A 8847  15.709  10.393   3.749 -0.1744  0.1219  0.0203
  843POSM   C1B 8848  15.062  10.817   3.126  0.0196  0.3772 -0.0007
  843POSM   D2B 8849  15.267  10.695   3.450 -0.2920 -0.2160 -0.4244
  843POSM   C3B 8850  15.220  10.469   3.794 -0.0420  0.1897  0.2003
  843POSM   C4B 8851  15.415  10.094   4.054 -0.1654  0.0677  0.0355
  844CHOL   ROH 8852   4.128   1.402   3.263  0.0919  0.1779 -0.0030
  844CHOL    R1 8853   4.253   1.475   3.507  0.1101  0.0201  0.0352
  844CHOL    R2 8854   4.120   1.611   3.707  0.1671  0.0169  0.0718
  844CHOL    R3 8855   4.205   1.403   3.861  0.0413 -0.0841  0.0070
  844CHOL    R4 8856   4.102   1.602   4.052  0.2309 -0.0368  0.0741
  844CHOL    R5 8857   4.300   1.509   4.054  0.1651 -0.1923  0.0104
  844CHOL    C1 8858   4.171   1.403   4.397  0.1500 -0.1629  0.0145
  844CHOL    C2 8859   3.924   1.589   4.610  0.0833  0.1833  0.0471
  845CHOL   ROH 8860  11.809  13.792   3.029  0.0935 -0.0484  0.0046
  845CHOL    R1 8861  11.883  13.834   3.299 -0.0707  0.0277  0.0389
  845CHOL    R2 8862  11.701  13.913   3.493 -0.2740 -0.3061 -0.0113
  845CHOL    R3 8863  11.794  13.693   3.623  0.0476 -0.1798 -0.0175
  845CHOL    R4 8864  11.748  13.890   3.834 -0.3648 -0.2844  0.0034
  845CHOL    R5 8865  11.933  13.781   3.797 -0.1606  0.0273  0.0509
  845CHOL    C1 8866  11.863  13.670   4.155 -0.1158 -0.1531  0.0061
  845CHOL    C2 8867  11.872  13.777   4.586  0.0155 -0.2135  0.0063
  846POPS   CNO 8868   4.775  14.907   1.850 -0.3721  0.1275 -0.3170
  846POPS   PO4 8869   4.866  14.615   2.207  0.2307 -0.1108  0.2566
  846POPS   GL1 8870   4.831  14.615   2.681  0.1093  0.1264  0.4106
  846POPS   GL2 8871   4.985  14.867   2.946  0.1655  0.1220  0.0058
  846POPS   C1A 8872   4.532  14.650   2.950  0.0792  0.1210  0.3501
  846POPS   D2A 8873   4.271  14.892   3.127  0.0042  0.1719 -0.1328
  846POPS   C3A 8874   4.188  14.903   3.536  0.3252  0.1223  0.1237
  846POPS   C4A 8875   4.163  14.940   3.965 -0.1348 -0.0196  0.2850
  846POPS   C1B 8876   4.728  14.885   3.413 -0.3494 -0.0143 -0.0596
  846POPS   C2B 8877   4.625  14.887   3.750  0.0230 -0.2767  0.0023
  846POPS   C3B 8878   4.652  14.728   4.091  0.0228  0.0050  0.0251
  846POPS   C4B 8879   4.720  14.823   4.527  0.0860 -0.0415  0.1632
  847POPS   CNO 8880   2.721   2.659   2.229 -0.1029  0.0831 -0.0289
  847POPS   PO4 8881   2.956   2.627   2.674  0.2393  0.0798  0.0999
  847POPS   GL1 8882   2.753   2.834   3.010  0.2932  0.0171  0.0384
  847POPS   GL2 8883   2.340   2.920   2.926  0.1312 -0.1262 -0.0437
  847POPS   C1A 8884   2.723   2.734   3.415  0.1560 -0.3936  0.1825
  847POPS   D2A 8885   2.858   2.837   3.779  0.1665 -0.0574  0.1531
  847POPS   C3A 8886   3.083   2.895   4.112  0.1952  0.0230 -0.0893
  847POPS   C4A 8887   3.308   2.939   4.568  0.0042 -0.0580 -0.0906
  847POPS   C1B 8888   2.188   2.754   3.336  0.0106  0.2101  0.4451
  847POPS   C2B 8889   2.275   2.654   3.732 -0.1467 -0.1853 -0.1683
  847POPS   C3B 8890   2.367   2.639   4.183  0.0647 -0.1536 -0.0455
  847POPS   C4B 8891   2.457   2.439   4.533 -0.3557  0.3068 -0.5285
  848POPE   NH3 8892   5.390   0.472   2.460 -0.3709 -0.0512 -0.0455
  848POPE   PO4 8893   5.500   0.854   2.598 -0.3714 -0.2281 -0.3446
  848POPE   GL1 8894   5.736   0.991   2.970 -0.0084 -0.0897  0.2093
  848POPE   GL2 8895   5.576   1.272   3.124 -0.1804 -0.0979  0.0089
  848POPE   C1A 8896   6.039   0.826   3.334  0.0130  0.3479  0.2237
  848POPE   D2A 8897   6.311   1.066   3.599 -0.0289 -0.0200 -0.0873
  848POPE   C3A 8898   6.269   0.994   3.920 -0.0493  0.0203 -0.2068
  848POPE   C4A 8899   6.372   1.107   4.244 -0.1401 -0.1752 -0.0535
  848POPE   C1B 8900   5.899   1.346   3.413 -0.1810  0.2464 -0.2865
  848POPE   C2B 8901   6.004   1.400   3.879  0.0700 -0.1656 -0.0185
  848POPE   C3B 8902   5.877   1.141   4.176 -0.3190 -0.2364 -0.0674
  848POPE   C4B 8903   5.758   0.796   4.414  0.0737 -0.1165 -0.2609
  849CHOL   ROH 8904   1.584   8.303   2.773 -0.0538  0.1533  0.1248
  849CHOL    R1 8905   1.487   8.427   3.008 -0.0393  0.0863  0.1662
  849CHOL    R2 8906   1.376   8.284   3.217 -0.0142  0.0256  0.1374
  849CHOL    R3 8907   1.563   8.416   3.364 -0.0082 -0.0042  0.1572
  849CHOL    R4 8908   1.328   8.401   3.539 -0.0169  0.0013  0.1462
  849CHOL    R5 8909   1.439   8.582   3.485  0.0017 -0.0035  0.1669
  849CHOL    C1 8910   1.476   8.594   3.864 -0.0128 -0.0409  0.1699
  849CHOL    C2 8911   1.588   8.575   4.248  0.0749 -0.0248  0.1703
  850POPS   CNO 8912   0.759   3.987   1.892  0.0979 -0.0619  0.0506
  850POPS   PO4 8913   0.505   4.267   2.215 -0.1662 -0.0459  0.0014
  850POPS   GL1 8914   0.225   4.322   2.574 -0.2115 -0.2921  0.0549
  850POPS   GL2 8915   0.092   4.738   2.476  0.1333 -0.3225  0.0631
  850POPS   C1A 8916   0.505   4.360   2.952  0.2016  0.0395  0.1738
  850POPS   D2A 8917   0.743   4.751   3.104 -0.0005  0.0314  0.0584
  850POPS   C3A 8918   0.828   4.879   3.471  0.1672 -0.0632  0.4158
  850POPS   C4A 8919   0.936   5.136   3.703  0.2165  0.1233 -0.2461
  850POPS   C1B 8920   0.198   4.757   2.890 -0.0158  0.3260  0.3424
  850POPS   C2B 8921   0.211   4.689   3.197 -0.1463  0.1580 -0.4435
  850POPS   C3B 8922   0.370   4.600   3.432  0.0744 -0.1376 -0.0854
  850POPS   C4B 8923   0.423   4.678   3.918 -0.2216 -0.0266  0.3636
  851CHOL   ROH 8924   8.577   0.109   2.958 -0.2385  0.0900  0.0988
  851CHOL    R1 8925   8.751   0.171   3.172 -0.2344  0.1497  0.0792
  851CHOL    R2 8926   8.660   0.257   3.418 -0.2419  0.0196  0.1236
  851CHOL    R3 8927   8.809   0.049   3.510 -0.0802  0.0938  0.0333
  851CHOL    R4 8928   8.741   0.205   3.750 -0.1433 -0.0237  0.0926
  851CHOL    R5 8929   8.941   0.144   3.686 -0.1124  0.1331  0.0369
  851CHOL    C1 8930   8.928  -0.021   4.030  0.0659  0.0207 -0.0101
  851CHOL    C2 8931   9.196   0.090   4.289  0.0280 -0.1496 -0.1165
  852POPC   NC3 8932  14.607   4.608   2.437 -0.0873 -0.0451 -0.1103
  852POPC   PO4 8933  14.200   4.784   2.270 -0.2026 -0.1441 -0.5462
  852POPC   GL1 8934  14.430   5.079   2.684 -0.0007  0.1412  0.1003
  852POPC   GL2 8935  14.471   5.357   2.664 -0.0277  0.0194  0.0287
  852POPC   C1A 8936  14.329   4.869   3.068 -0.0110 -0.0583  0.0876
  852POPC   D2A 8937  14.046   4.728   3.331  0.0353  0.0446 -0.0235
  852POPC   C3A 8938  14.051   4.812   3.848 -0.0633 -0.2922  0.0442
  852POPC   C4A 8939  13.896   4.902   4.323 -0.1693 -0.0126  0.1633
  852POPC   C1B 8940  14.501   5.394   3.128 -0.0331 -0.1789 -0.1769
  852POPC   C2B 8941  14.601   5.432   3.504  0.0276 -0.0212 -0.1443
  852POPC   C3B 8942  14.573   5.465   3.919  0.1219 -0.0170 -0.0466
  852POPC   C4B 8943  14.674   5.312   4.213  0.0343 -0.0019 -0.0979
  853POPC   NC3 8944   9.625   0.738   2.290  0.0734  0.4279  0.2060
  853POPC   PO4 8945   9.454   1.066   2.438 -0.1546 -0.1857  0.1720
  853POPC   GL1 8946   9.504   0.834   2.814  0.3855 -0.0539  0.0790
  853POPC   GL2 8947   9.639   0.990   3.030  0.0751  0.3414 -0.0006
  853POPC   C1A 8948   9.283   0.547   3.122 -0.1565 -0.0027  0.2071
  853POPC   D2A 8949   9.269   0.449   3.444  0.0556  0.1136 -0.0201
  853POPC   C3A 8950   9.053   0.522   3.990  0.1222  0.0888 -0.2964
  853POPC   C4A 8951   8.708   0.364   4.256  0.1661  0.0582 -0.0686
  853POPC   C1B 8952   9.746   0.961   3.416  0.1157  0.4653  0.0069
  853POPC   C2B 8953   9.792   0.998   3.905  0.1083 -0.0017 -0.0115
  853POPC   C3B 8954   9.805   0.936   4.318  0.0859 -0.0562 -0.3573
  853POPC   C4B 8955   9.456   1.101   4.614 -0.0327  0.1364 -0.0844
  854POPE   NH3 8956  13.768   4.533   2.306 -0.1027 -0.2256  0.0309
  854POPE   PO4 8957  13.870   4.092   2.026 -0.0259  0.1423  0.0225
  854POPE   GL1 8958  13.951   4.061   2.390  0.1659 -0.0639  0.2979
  854POPE   GL2 8959  14.131   4.356   2.596 -0.1874  0.1890  0.0129
  854POPE   C1A 8960  13.844   3.955   2.890  0.0322 -0.1071 -0.1344
  854POPE   D2A 8961  13.857   4.050   3.325 -0.0453  0.0730  0.1389
  854POPE   C3A 8962  13.751   4.293   3.407 -0.0882 -0.1886 -0.0880
  854POPE   C4A 8963  13.593   4.651   3.194  0.2201 -0.0537 -0.1065
  854POPE   C1B 8964  14.187   4.362   3.028 -0.0236  0.0244 -0.1307
  854POPE   C2B 8965  14.309   4.176   3.475  0.0856  0.2211 -0.4203
  854POPE   C3B 8966  14.009   4.261   3.829 -0.0711  0.0102  0.4745
  854POPE   C4B 8967  13.948   4.017   4.129 -0.1585 -0.1429  0.0016
  855POPC   NC3 8968   6.832   1.070   2.445 -0.2072 -0.4815  0.0206
  855POPC   PO4 8969   6.868   0.650   2.599 -0.3163 -0.1075 -0.0054
  855POPC   GL1 8970   6.642   0.331   2.829  0.2338 -0.0482 -0.1707
  855POPC   GL2 8971   6.883   0.318   3.088  0.1250 -0.0107 -0.0399
  855POPC   C1A 8972   6.634  -0.109   2.996 -0.0996 -0.0876 -0.1167
  855POPC   D2A 8973   6.543  -0.296   3.364  0.1517 -0.4106  0.0942
  855POPC   C3A 8974   6.487  -0.308   3.769  0.2105  0.2200  0.3246
  855POPC   C4A 8975   6.436  -0.362   4.181 -0.3211  0.1243  0.3196
  855POPC   C1B 8976   6.655   0.169   3.463 -0.2650  0.1866  0.0310
  855POPC   C2B 8977   6.577   0.196   3.965  0.0219  0.1477  0.0641
  855POPC   C3B 8978   6.577   0.067   4.356  0.3084  0.0737  0.1760
  855POPC   C4B 8979   6.458  -0.200   4.663  0.0701 -0.1339  0.1743
  856POSM   NC3 8980   2.710  13.187   2.561 -0.2056 -0.0983  0.0754
  856POSM   PO4 8981   2.381  13.209   2.316  0.0233 -0.1140  0.3099
  856POSM   AM1 8982   2.244  13.476   2.564 -0.0169 -0.2831  0.0384
  856POSM   AM2 8983   1.938  13.388   2.629  0.2961 -0.1449  0.1210
  856POSM   T1A 8984   2.501  13.534   2.940 -0.0915  0.4654 -0.1265
  856POSM   C2A 8985   2.677  13.633   3.292  0.2216  0.2742 -0.1876
  856POSM   C3A 8986   2.728  13.953   3.526  0.1070  0.0615  0.0063
  856POSM   C1B 8987   2.031  13.282   3.050 -0.4634  0.3441 -0.4394
  856POSM   D2B 8988   2.386  13.227   3.453  0.2516 -0.1369 -0.0958
  856POSM   C3B 8989   2.413  13.362   3.839  0.1532 -0.0318  0.0045
  856POSM   C4B 8990   2.181  13.585   4.207  0.1770  0.0447 -0.2840
  857POPE   NH3 8991  11.742   1.940   2.667 -0.0927  0.0680 -0.1291
  857POPE   PO4 8992  11.746   1.525   2.524 -0.0281 -0.0007 -0.3342
  857POPE   GL1 8993  11.762   1.373   2.995 -0.0985  0.1040  0.1552
  857POPE   GL2 8994  11.902   1.050   3.096 -0.0933 -0.5548  0.2897
  857POPE   C1A 8995  11.864   1.385   3.433  0.2274 -0.3088  0.0413
  857POPE   D2A 8996  11.925   1.287   3.922  0.0551  0.1740  0.1443
  857POPE   C3A 8997  11.598   1.353   4.310 -0.0451 -0.2391  0.0057
  857POPE   C4A 8998  11.233   1.334   4.569  0.1311 -0.5693 -0.0060
  857POPE   C1B 8999  12.063   0.870   3.484 -0.0184  0.2335  0.0672
  857POPE   C2B 9000  12.070   0.848   3.941  0.1960  0.0285  0.0237
  857POPE   C3B 9001  12.238   0.648   4.337  0.0608 -0.4685 -0.0241
  857POPE   C4B 9002  12.507   0.680   4.769 -0.0565 -0.0724  0.0920
  858CHOL   ROH 9003  12.717   1.750   3.243  0.0308 -0.1033  0.0139
  858CHOL    R1 9004  12.552   1.905   3.414  0.0311 -0.0333 -0.0495
  858CHOL    R2 9005  12.649   2.036   3.637  0.0121 -0.0257 -0.0470
  858CHOL    R3 9006  12.535   2.252   3.520  0.0974 -0.0118 -0.1064
  858CHOL    R4 9007  12.502   2.298   3.807 -0.0141  0.0074 -0.1200
  858CHOL    R5 9008  12.345   2.301   3.657  0.0478  0.0262 -0.1869
  858CHOL    C1 9009  12.309   2.655   3.796  0.0507  0.0396 -0.2183
  858CHOL    C2 9010  12.206   2.923   4.040 -0.0913 -0.1119  0.2900
  859POPC   NC3 9011  14.386   6.591   2.167  0.1596 -0.0926 -0.0839
  859POPC   PO4 9012  14.479   6.206   2.129  0.0898  0.0300 -0.1431
  859POPC   GL1 9013  14.534   6.117   2.536 -0.1223  0.1415  0.1661
  859POPC   GL2 9014  14.393   6.361   2.697 -0.1583  0.1700 -0.0249
  859POPC   C1A 9015  14.838   6.207   2.784 -0.0006  0.3168 -0.0586
  859POPC   D2A 9016  14.939   6.472   3.123 -0.0511 -0.0688  0.2779
  859POPC   C3A 9017  15.071   6.468   3.505  0.1109  0.0863 -0.1090
  859POPC   C4A 9018  15.039   6.434   3.954 -0.1041  0.0210  0.2515
  859POPC   C1B 9019  14.242   6.323   3.130  0.2511 -0.0616  0.0730
  859POPC   C2B 9020  14.084   6.427   3.511 -0.3276 -0.2638  0.3376
  859POPC   C3B 9021  14.013   6.400   3.929  0.0159 -0.0271  0.2192
  859POPC   C4B 9022  13.726   6.233   4.112  0.4387 -0.1589 -0.3320
  860POSM   NC3 9023   7.138   0.380   2.072 -0.0255 -0.0103  0.0163
  860POSM   PO4 9024   7.145  -0.024   2.325 -0.0339  0.0543 -0.0386
  860POSM   AM1 9025   7.299   0.241   2.622  0.0079  0.2963  0.0020
  860POSM   AM2 9026   7.527   0.015   2.698  0.0192 -0.1389  0.1057
  860POSM   T1A 9027   7.419   0.349   3.060 -0.1045 -0.1316 -0.3726
  860POSM   C2A 9028   7.629   0.294   3.427  0.1620  0.1190  0.0397
  860POSM   C3A 9029   7.424   0.192   3.768  0.0511  0.2372  0.2225
  860POSM   C1B 9030   7.243  -0.116   3.022 -0.1458  0.3447 -0.1028
  860POSM   D2B 9031   7.098  -0.017   3.377 -0.1147  0.1365  0.1830
  860POSM   C3B 9032   7.024  -0.066   3.722 -0.2550 -0.0313  0.1401
  860POSM   C4B 9033   7.027  -0.210   4.064  0.0814  0.1838 -0.2727
  861POPS   CNO 9034   8.521   0.564   2.383  0.1592  0.1085 -0.0242
  861POPS   PO4 9035   8.365   0.495   2.638 -0.2059 -0.0254  0.0292
  861POPS   GL1 9036   8.470   0.589   3.089 -0.1367 -0.0002  0.1680
  861POPS   GL2 9037   8.830   0.815   3.151 -0.2369 -0.1789  0.0978
  861POPS   C1A 9038   8.282   0.559   3.501 -0.0423 -0.1064 -0.1119
  861POPS   D2A 9039   8.172   0.490   3.893  0.1731 -0.2898  0.0695
  861POPS   C3A 9040   7.979   0.751   4.291 -0.2226 -0.0529 -0.2611
  861POPS   C4A 9041   7.763   0.821   4.687  0.0480 -0.1304  0.0451
  861POPS   C1B 9042   8.781   0.719   3.551 -0.0258  0.0347 -0.1549
  861POPS   C2B 9043   8.617   0.777   3.900  0.1910  0.0146 -0.0200
  861POPS   C3B 9044   8.519   0.834   4.353  0.2307 -0.0793 -0.0677
  861POPS   C4B 9045   8.438   1.219   4.582 -0.0938  0.1106 -0.0510
  862CHOL   ROH 9046   6.191   0.056   2.925  0.2746  0.1987  0.0124
  862CHOL    R1 9047   6.236   0.108   3.199  0.0100  0.1935  0.0580
  862CHOL    R2 9048   6.038   0.203   3.368 -0.2177 -0.0441 -0.0781
  862CHOL    R3 9049   6.105  -0.014   3.516 -0.1075 -0.0022 -0.0624
  862CHOL    R4 9050   6.053   0.197   3.713 -0.4170 -0.0561 -0.0674
  862CHOL    R5 9051   6.233   0.074   3.698 -0.2907  0.1036  0.0237
  862CHOL    C1 9052   6.124  -0.012   4.053 -0.4296 -0.0237 -0.0464
  862CHOL    C2 9053   6.083   0.110   4.399 -0.0372  0.0975  0.1399
  863POSM   NC3 9054  10.539   0.704   2.586 -0.0297 -0.0328  0.1380
  863POSM   PO4 9055  10.285   0.442   2.832 -0.2029 -0.0212 -0.2924
  863POSM   AM1 9056  10.526   0.809   3.114  0.2337  0.1322 -0.2039
  863POSM   AM2 9057  10.379   1.059   3.147 -0.0378 -0.1843 -0.1252
  863POSM   T1A 9058  10.685   0.783   3.619 -0.2741 -0.0625  0.1424
  863POSM   C2A 9059  10.831   1.028   4.034  0.3161 -0.0370 -0.2194
  863POSM   C3A 9060  10.699   1.255   4.340  0.1218  0.3249 -0.0563
  863POSM   C1B 9061  10.188   0.795   3.527 -0.2050 -0.1483 -0.2225
  863POSM   D2B 9062  10.167   0.690   3.968 -0.1136 -0.1605  0.0612
  863POSM   C3B 9063  10.270   0.731   4.433 -0.1451  0.5713  0.3200
  863POSM   C4B 9064  10.525   0.982   4.718 -0.2655  0.0532 -0.1339
  864POPC   NC3 9065  12.978   2.855   2.299  0.2490 -0.1333 -0.1754
  864POPC   PO4 9066  13.014   3.246   2.504 -0.1454  0.0261  0.1226
  864POPC   GL1 9067  12.982   3.300   2.967  0.1000  0.2201  0.4097
  864POPC   GL2 9068  13.190   3.491   2.950 -0.0503  0.1118 -0.3987
  864POPC   C1A 9069  13.004   3.381   3.423  0.0423 -0.1292 -0.0312
  864POPC   D2A 9070  12.990   3.446   3.772  0.4310  0.3336  0.1406
  864POPC   C3A 9071  13.264   3.570   3.889 -0.1250  0.1091  0.0045
  864POPC   C4A 9072  13.364   3.665   4.346  0.4415 -0.0946  0.1139
  864POPC   C1B 9073  13.424   3.714   3.297  0.2284 -0.4922  0.3714
  864POPC   C2B 9074  13.420   3.982   3.612 -0.3055  0.0800  0.0896
  864POPC   C3B 9075  13.407   4.044   4.025  0.3528  0.2043  0.1135
  864POPC   C4B 9076  13.225   4.167   4.322  0.0743 -0.0454  0.0146
  865CHOL   ROH 9077   3.086   2.388   3.112  0.0754  0.0447  0.0858
  865CHOL    R1 9078   3.063   2.371   3.393  0.1540 -0.1342  0.0839
  865CHOL    R2 9079   3.263   2.268   3.553  0.3365  0.0528 -0.0071
  865CHOL    R3 9080   3.240   2.506   3.681  0.0325 -0.0383  0.1122
  865CHOL    R4 9081   3.426   2.352   3.846  0.3153  0.1653 -0.0284
  865CHOL    R5 9082   3.244   2.450   3.914  0.1984 -0.1340  0.0835
  865CHOL    C1 9083   3.499   2.625   4.137  0.0176  0.1454  0.0713
  865CHOL    C2 9084   3.730   2.335   4.270  0.0646  0.1006 -0.2093
  866POPC   NC3 9085  15.208   6.903   1.844 -0.0146  0.1617  0.0443
  866POPC   PO4 9086  15.199   6.902   2.316  0.1773 -0.0130 -0.0162
  866POPC   GL1 9087  15.432   7.103   2.643 -0.1182  0.1800  0.0003
  866POPC   GL2 9088  15.647   6.879   2.812  0.1329  0.1231 -0.0923
  866POPC   C1A 9089  15.403   7.246   3.093  0.0407 -0.2400 -0.2628
  866POPC   D2A 9090  15.317   7.502   3.461 -0.0526  0.3350 -0.0630
  866POPC   C3A 9091  15.422   7.428   3.858  0.2712  0.0235  0.1721
  866POPC   C4A 9092  15.389   7.460   4.327 -0.1403 -0.0289  0.2810
  866POPC   C1B 9093  15.861   7.006   3.131 -0.0778  0.0093 -0.1306
  866POPC   C2B 9094  16.178   7.126   3.493 -0.1399  0.0507 -0.4211
  866POPC   C3B 9095  16.344   7.480   3.865  0.1068  0.1265  0.1068
  866POPC   C4B 9096  16.358   7.428   4.308  0.1450 -0.0407 -0.3032
  867CHOL   ROH 9097  10.413  14.791   3.206 -0.0978 -0.1052  0.0920
  867CHOL    R1 9098  10.531  14.753   3.461 -0.0172 -0.1433  0.0514
  867CHOL    R2 9099  10.420  14.854   3.693  0.2154  0.0771  0.0801
  867CHOL    R3 9100  10.437  14.595   3.775 -0.0498  0.0939  0.1551
  867CHOL    R4 9101  10.393  14.748   4.021  0.0625  0.1726  0.0976
  867CHOL    R5 9102  10.554  14.606   3.983 -0.0841  0.0201  0.1643
  867CHOL    C1 9103  10.394  14.443   4.288 -0.2755  0.2440  0.1783
  867CHOL    C2 9104  10.613  14.368   4.554 -0.0899  0.0969 -0.4161
  868CHOL   ROH 9105  14.927   7.060   2.914  0.3513  0.0318 -0.3118
  868CHOL    R1 9106  14.906   7.149   3.182  0.3737  0.1781 -0.3569
  868CHOL    R2 9107  14.840   6.980   3.390  0.0043  0.3677 -0.3158
  868CHOL    R3 9108  15.071   7.076   3.498  0.1150  0.0411 -0.2522
  868CHOL    R4 9109  14.967   6.889   3.698 -0.2208  0.1959 -0.2712
  868CHOL    R5 9110  15.023   7.096   3.732  0.0718  0.1227 -0.2632
  868CHOL    C1 9111  15.257   6.925   3.979 -0.2480 -0.2107 -0.1855
  868CHOL    C2 9112  15.609   6.934   4.189  0.1503 -0.0148  0.2739
  869POPC   NC3 9113  15.114   9.317   2.443 -0.1259  0.0196 -0.0837
  869POPC   PO4 9114  15.488   9.294   2.268  0.0208  0.0506 -0.0844
  869POPC   GL1 9115  15.487   9.209   2.734 -0.0778  0.0858  0.0240
  869POPC   GL2 9116  15.403   8.953   2.799  0.0029 -0.2449  0.0363
  869POPC   C1A 9117  15.333   9.280   3.145 -0.0370 -0.0243 -0.0394
  869POPC   D2A 9118  15.098   9.162   3.526  0.2564 -0.0389 -0.3323
  869POPC   C3A 9119  15.075   9.111   4.008 -0.0934 -0.1474 -0.1788
  869POPC   C4A 9120  15.259   9.388   4.394  0.2950 -0.0546 -0.0577
  869POPC   C1B 9121  15.801   8.961   3.118 -0.0634 -0.0621  0.1038
  869POPC   C2B 9122  15.956   8.807   3.490 -0.1098 -0.1372 -0.0291
  869POPC   C3B 9123  15.830   8.636   3.909 -0.2143 -0.1649 -0.3209
  869POPC   C4B 9124  15.562   8.415   4.140 -0.1593  0.0763  0.3304
  870POSM   NC3 9125   8.545  15.139   2.121 -0.1424 -0.0958  0.0132
  870POSM   PO4 9126   8.153  15.305   2.201 -0.2232 -0.0319 -0.0901
  870POSM   AM1 9127   7.982  15.571   2.534  0.0319  0.1588 -0.2107
  870POSM   AM2 9128   8.138  15.433   2.761 -0.1352  0.1429 -0.0709
  870POSM   T1A 9129   7.931  15.883   2.849 -0.1305  0.2208  0.2409
  870POSM   C2A 9130   7.794  16.170   3.124 -0.0981 -0.0138 -0.1776
  870POSM   C3A 9131   7.876  16.551   3.326 -0.0157  0.2592  0.2592
  870POSM   C1B 9132   8.154  15.508   3.147  0.0982 -0.3448 -0.1402
  870POSM   D2B 9133   8.267  15.436   3.590  0.1985  0.0758 -0.0942
  870POSM   C3B 9134   7.911  15.478   3.835  0.0016  0.1911  0.1367
  870POSM   C4B 9135   7.900  15.121   4.126 -0.0371  0.0637 -0.0288
  871CHOL   ROH 9136  11.839  14.267   3.047  0.0969  0.0785 -0.0817
  871CHOL    R1 9137  11.991  14.311   3.282  0.0106  0.0689 -0.0231
  871CHOL    R2 9138  11.880  14.413   3.514 -0.0917 -0.0039 -0.0350
  871CHOL    R3 9139  11.988  14.190   3.625 -0.0731 -0.0025 -0.0500
  871CHOL    R4 9140  11.907  14.353   3.853 -0.0936 -0.0396 -0.0412
  871CHOL    R5 9141  12.104  14.269   3.818 -0.0880 -0.0147 -0.0403
  871CHOL    C1 9142  12.024  14.109   4.155 -0.0772 -0.0592 -0.0588
  871CHOL    C2 9143  12.314  13.871   4.399 -0.2146 -0.0902  0.1590
  872CHOL   ROH 9144   0.056  10.172   2.699 -0.1004  0.1398 -0.2795
  872CHOL    R1 9145   0.010  10.223   2.974 -0.0526  0.1059 -0.2659
  872CHOL    R2 9146  -0.242  10.275   3.076 -0.0460 -0.0117 -0.2015
  872CHOL    R3 9147  -0.181  10.069   3.243  0.0849  0.0089 -0.2214
  872CHOL    R4 9148  -0.390  10.217   3.383  0.2339  0.0684 -0.0468
  872CHOL    R5 9149  -0.195  10.163   3.462  0.3067  0.0560 -0.2215
  872CHOL    C1 9150  -0.418   9.991   3.718  0.5198  0.1344  0.0246
  872CHOL    C2 9151  -0.556   9.923   4.066  0.0391 -0.2216  0.1898
  873POPE   NH3 9152   7.698   1.089   2.389 -0.5730 -0.2072  0.2263
  873POPE   PO4 9153   7.315   0.972   2.617 -0.0637 -0.1444  0.0507
  873POPE   GL1 9154   7.231   0.882   2.957 -0.1140 -0.1326  0.0038
  873POPE   GL2 9155   7.165   1.101   3.128 -0.0340  0.0148 -0.2503
  873POPE   C1A 9156   7.078   0.656   3.292  0.1039 -0.0286 -0.1767
  873POPE   D2A 9157   7.133   0.621   3.706  0.1845 -0.1135 -0.1305
  873POPE   C3A 9158   7.076   0.339   4.114  0.0755 -0.0604  0.2957
  873POPE   C4A 9159   7.281   0.529   4.400  0.0242  0.2061  0.1090
  873POPE   C1B 9160   7.461   0.921   3.502  0.1993 -0.1935  0.2899
  873POPE   C2B 9161   7.652   0.696   3.743 -0.2658  0.0350  0.2459
  873POPE   C3B 9162   7.688   0.398   4.112 -0.2183  0.1626 -0.3206
  873POPE   C4B 9163   7.776   0.330   4.525 -0.2827 -0.0467 -0.2204
  874POPC   NC3 9164   5.275  15.435   2.333 -0.0041  0.0139  0.1614
  874POPC   PO4 9165   5.753  15.556   2.264  0.0019  0.0265 -0.0855
  874POPC   GL1 9166   5.689  15.456   2.714  0.2796  0.0279  0.2607
  874POPC   GL2 9167   5.705  15.109   2.814 -0.2610  0.2537  0.0696
  874POPC   C1A 9168   5.602  15.502   3.178 -0.0062 -0.0206  0.0502
  874POPC   D2A 9169   5.544  15.272   3.503  0.0401  0.1347  0.2155
  874POPC   C3A 9170   5.673  15.438   3.909  0.1341 -0.0198  0.3547
  874POPC   C4A 9171   5.727  15.761   4.100 -0.2396  0.1113 -0.3282
  874POPC   C1B 9172   5.436  14.970   3.160 -0.0452  0.0511 -0.0634
  874POPC   C2B 9173   5.239  14.688   3.419 -0.2616  0.1069  0.3743
  874POPC   C3B 9174   5.091  14.664   3.824 -0.0166  0.0162  0.1734
  874POPC   C4B 9175   5.172  14.599   4.285  0.0044 -0.3263  0.1997
  875POPC   NC3 9176   0.786   8.088   2.332 -0.3165 -0.2432  0.1357
  875POPC   PO4 9177   1.125   8.289   2.346  0.2607  0.0041  0.0238
  875POPC   GL1 9178   1.009   8.406   2.790  0.1560 -0.1112  0.3191
  875POPC   GL2 9179   1.221   8.719   2.741 -0.0206  0.3457  0.0718
  875POPC   C1A 9180   0.973   8.551   3.183  0.1968 -0.0813  0.0440
  875POPC   D2A 9181   0.711   8.389   3.483  0.0908  0.4346  0.0110
  875POPC   C3A 9182   0.798   8.410   3.928 -0.1243  0.0880  0.0132
  875POPC   C4A 9183   1.043   8.273   4.263 -0.0845 -0.1713  0.0861
  875POPC   C1B 9184   1.363   8.926   3.117  0.0920 -0.0168  0.3084
  875POPC   C2B 9185   1.575   9.183   3.338 -0.0755 -0.4593 -0.1553
  875POPC   C3B 9186   1.540   9.135   3.778 -0.2489  0.1295  0.0246
  875POPC   C4B 9187   1.554   9.070   4.217  0.0374  0.2864 -0.2671
  876POPC   NC3 9188  12.530  12.793   2.109 -0.0935  0.0844  0.0997
  876POPC   PO4 9189  12.718  12.758   2.498 -0.1781 -0.0560  0.0062
  876POPC   GL1 9190  12.761  12.508   2.919 -0.1782  0.0395 -0.2541
  876POPC   GL2 9191  12.501  12.404   3.028 -0.0270  0.0494  0.2127
  876POPC   C1A 9192  12.910  12.732   3.217 -0.0903 -0.1303  0.0553
  876POPC   D2A 9193  12.936  12.800   3.597  0.2713  0.0259  0.2240
  876POPC   C3A 9194  12.987  13.008   3.935 -0.1443  0.1444 -0.1028
  876POPC   C4A 9195  13.261  13.039   4.231  0.0365 -0.0939  0.1323
  876POPC   C1B 9196  12.523  12.472   3.412 -0.0039 -0.1799  0.0413
  876POPC   C2B 9197  12.510  12.396   3.741 -0.0804 -0.0020 -0.1396
  876POPC   C3B 9198  12.779  12.556   4.026  0.0369  0.1387  0.1076
  876POPC   C4B 9199  13.275  12.545   4.105 -0.1971  0.1503  0.0910
  877POPE   NH3 9200  13.817  10.711   2.501  0.1078  0.1142 -0.2318
  877POPE   PO4 9201  13.813  11.159   2.545  0.1298 -0.1073 -0.0106
  877POPE   GL1 9202  14.172  11.257   2.866  0.1594 -0.2148  0.0276
  877POPE   GL2 9203  14.465  11.460   2.742 -0.2562  0.2866  0.1014
  877POPE   C1A 9204  14.223  11.330   3.287  0.1059  0.1001  0.0874
  877POPE   D2A 9205  14.249  11.332   3.771 -0.0545  0.2625  0.1399
  877POPE   C3A 9206  14.607  11.503   4.087 -0.1108  0.1552 -0.2509
  877POPE   C4A 9207  14.756  11.779   4.578  0.1255  0.0831  0.3407
  877POPE   C1B 9208  14.598  11.585   3.073 -0.1790  0.0536 -0.3099
  877POPE   C2B 9209  14.483  11.675   3.539  0.0512  0.0730 -0.0950
  877POPE   C3B 9210  14.478  11.897   3.824 -0.0237  0.0590  0.0029
  877POPE   C4B 9211  14.545  12.017   4.170 -0.0714  0.2872 -0.0633
  878POPS   CNO 9212   0.274   5.403   2.191  0.1855  0.1295 -0.0917
  878POPS   PO4 9213   0.377   5.146   2.381  0.1518  0.1100  0.0574
  878POPS   GL1 9214   0.156   5.173   2.708 -0.0956 -0.1878 -0.2029
  878POPS   GL2 9215  -0.006   5.465   2.711 -0.2045  0.0385  0.2578
  878POPS   C1A 9216  -0.109   5.128   3.047 -0.2920 -0.1219 -0.0799
  878POPS   D2A 9217  -0.194   5.142   3.450 -0.2321 -0.2444  0.1746
  878POPS   C3A 9218  -0.487   5.170   3.801 -0.2378  0.2665  0.0041
  878POPS   C4A 9219  -0.361   5.170   4.305  0.2642  0.2789  0.1877
  878POPS   C1B 9220   0.122   5.595   3.070 -0.0734  0.1414 -0.1631
  878POPS   C2B 9221   0.178   5.860   3.562  0.0163 -0.3967 -0.2354
  878POPS   C3B 9222  -0.005   6.026   3.907 -0.3410  0.1863 -0.1175
  878POPS   C4B 9223  -0.201   6.145   4.359 -0.0618 -0.0321  0.0606
  879POPE   NH3 9224  10.714   1.824   2.902  0.0536 -0.1451 -0.0177
  879POPE   PO4 9225  10.904   1.424   2.840 -0.2200 -0.0732 -0.2657
  879POPE   GL1 9226  10.834   1.240   3.226  0.1275  0.2675 -0.0322
  879POPE   GL2 9227  11.047   1.224   3.591  0.1191  0.2011  0.4853
  879POPE   C1A 9228  10.469   1.275   3.594  0.0669 -0.0482  0.0289
  879POPE   D2A 9229  10.407   1.230   3.927 -0.1863 -0.2239 -0.0227
  879POPE   C3A 9230  10.464   1.647   4.156  0.2943 -0.0381  0.1078
  879POPE   C4A 9231  10.525   1.949   4.432 -0.1568 -0.0842 -0.3988
  879POPE   C1B 9232  11.250   1.248   3.952 -0.0570 -0.2028  0.3220
  879POPE   C2B 9233  11.272   0.996   4.257 -0.0527 -0.0134  0.0295
  879POPE   C3B 9234  10.987   0.878   4.611  0.0723  0.0761  0.0387
  879POPE   C4B 9235  10.883   0.849   5.070  0.0416  0.3982 -0.0021
  880POPE   NH3 9236   4.330   1.251   2.626 -0.0912 -0.1206 -0.4055
  880POPE   PO4 9237   4.497   1.624   2.668 -0.0516 -0.0083 -0.1253
  880POPE   GL1 9238   4.792   1.537   2.893 -0.1824  0.0011 -0.0536
  880POPE   GL2 9239   4.592   1.295   3.068  0.1474 -0.0440 -0.1269
  880POPE   C1A 9240   5.022   1.386   3.326  0.1499  0.1853  0.0175
  880POPE   D2A 9241   5.065   1.020   3.600 -0.0226  0.1086  0.1530
  880POPE   C3A 9242   4.977   0.601   3.492 -0.1062  0.1893  0.5482
  880POPE   C4A 9243   5.220   0.409   3.158  0.4945 -0.3774  0.0905
  880POPE   C1B 9244   4.575   1.161   3.431 -0.0812 -0.2727  0.0768
  880POPE   C2B 9245   4.555   1.002   3.737 -0.0828  0.3342  0.1473
  880POPE   C3B 9246   4.871   0.721   3.988  0.0309  0.3648 -0.0951
  880POPE   C4B 9247   4.913   0.742   4.423  0.2325 -0.1627 -0.2111
  881POPC   NC3 9248  13.986   3.491   2.206 -0.1825  0.2246 -0.1740
  881POPC   PO4 9249  14.287   3.244   2.400  0.0679  0.1235 -0.2573
  881POPC   GL1 9250  14.323   3.139   2.910  0.1563  0.1328 -0.3991
  881POPC   GL2 9251  14.243   2.946   3.117  0.0262  0.3542  0.3281
  881POPC   C1A 9252  14.372   3.334   3.395  0.0842  0.5026 -0.0390
  881POPC   D2A 9253  14.409   3.322   3.777 -0.3381 -0.1482 -0.2743
  881POPC   C3A 9254  14.237   3.484   4.210  0.1988  0.0158 -0.5043
  881POPC   C4A 9255  14.105   3.701   4.530  0.2051  0.0145 -0.0973
  881POPC   C1B 9256  14.137   2.944   3.531 -0.3105 -0.0554  0.2455
  881POPC   C2B 9257  14.129   2.997   4.018 -0.0930 -0.1390  0.0885
  881POPC   C3B 9258  14.130   2.681   4.299  0.2228 -0.0663 -0.1352
  881POPC   C4B 9259  14.289   2.193   4.304  0.0763 -0.1769 -0.1950
  882POPS   CNO 9260   3.370  14.778   1.889 -0.2125  0.0702 -0.3874
  882POPS   PO4 9261   3.505  14.889   2.325 -0.0058  0.0031  0.1287
  882POPS   GL1 9262   3.394  14.570   2.661 -0.0981 -0.1073 -0.2655
  882POPS   GL2 9263   3.659  14.503   2.909 -0.0041 -0.0418 -0.0973
  882POPS   C1A 9264   3.170  14.286   3.025  0.0409 -0.0876  0.1457
  882POPS   D2A 9265   2.870  14.418   3.278 -0.2139  0.1259  0.1778
  882POPS   C3A 9266   2.969  14.418   3.660 -0.0506  0.0776 -0.1480
  882POPS   C4A 9267   2.788  14.280   4.086 -0.0190  0.1490 -0.2322
  882POPS   C1B 9268   3.466  14.499   3.393  0.0395 -0.0518 -0.2942
  882POPS   C2B 9269   3.409  14.519   3.769  0.0030  0.2669 -0.1674
  882POPS   C3B 9270   3.253  14.542   4.184 -0.2590 -0.1963 -0.1175
  882POPS   C4B 9271   2.983  14.534   4.455 -0.2171 -0.0700  0.1165
  883CHOL   ROH 9272   0.317  12.218   2.972 -0.0962 -0.0635  0.0459
  883CHOL    R1 9273   0.294  12.014   3.168 -0.0571 -0.0553  0.0603
  883CHOL    R2 9274   0.455  12.006   3.393 -0.0124 -0.0437  0.0335
  883CHOL    R3 9275   0.217  11.997   3.523  0.0111 -0.0368  0.0753
  883CHOL    R4 9276   0.417  11.953   3.732  0.0378 -0.1006  0.0298
  883CHOL    R5 9277   0.245  11.827   3.688  0.0160 -0.0685  0.0385
  883CHOL    C1 9278   0.171  11.915   4.052  0.0892 -0.1272  0.0669
  883CHOL    C2 9279  -0.062  12.071   4.465  0.0022  0.0132 -0.3451
  884POPS   CNO 9280  13.841  14.183   2.605  0.0517 -0.2080  0.2342
  884POPS   PO4 9281  13.473  14.123   2.414 -0.1442  0.1389 -0.1340
  884POPS   GL1 9282  13.429  13.808   2.832  0.1904  0.1524 -0.1836
  884POPS   GL2 9283  13.475  13.515   2.722  0.1637 -0.0006 -0.0793
  884POPS   C1A 9284  13.344  13.718   3.200  0.0902 -0.3075  0.2213
  884POPS   D2A 9285  13.335  13.697   3.549  0.0431 -0.1080 -0.2073
  884POPS   C3A 9286  13.329  13.896   3.950 -0.1758 -0.0977 -0.1981
  884POPS   C4A 9287  13.506  13.926   4.386 -0.1916 -0.0603  0.1050
  884POPS   C1B 9288  13.276  13.228   3.042 -0.1181  0.1601 -0.0305
  884POPS   C2B 9289  13.261  13.129   3.451  0.2633  0.0966  0.0441
  884POPS   C3B 9290  13.368  13.380   3.893 -0.0033 -0.0219 -0.2407
  884POPS   C4B 9291  13.278  13.518   4.270  0.0334  0.0206  0.0253
  885CHOL   ROH 9292   1.950  13.802   2.916 -0.0343 -0.0410  0.1706
  885CHOL    R1 9293   1.928  13.782   3.198 -0.0442  0.0942  0.1797
  885CHOL    R2 9294   2.133  13.683   3.356 -0.0819  0.0903  0.2254
  885CHOL    R3 9295   2.102  13.920   3.486  0.0048  0.1607  0.1194
  885CHOL    R4 9296   2.313  13.782   3.634  0.0307  0.1958  0.1166
  885CHOL    R5 9297   2.130  13.865   3.717  0.0732  0.2697  0.1377
  885CHOL    C1 9298   2.388  14.061   3.918  0.1776  0.3234 -0.0462
  885CHOL    C2 9299   2.672  13.793   3.996  0.1391  0.1445  0.1046
  886POPS   CNO 9300   9.102  14.675   2.726 -0.0539 -0.1670  0.0641
  886POPS   PO4 9301   8.788  14.978   2.487 -0.1159  0.3360  0.3282
  886POPS   GL1 9302   8.552  15.062   2.817 -0.0030 -0.0038  0.0260
  886POPS   GL2 9303   8.229  14.910   2.827  0.3818 -0.0447 -0.0327
  886POPS   C1A 9304   8.580  15.131   3.225 -0.1386 -0.1939 -0.1867
  886POPS   D2A 9305   8.580  15.054   3.684  0.0700 -0.4065  0.1645
  886POPS   C3A 9306   8.463  15.263   4.082  0.0565 -0.0790  0.0437
  886POPS   C4A 9307   8.233  15.614   4.291 -0.0393 -0.3271 -0.2146
  886POPS   C1B 9308   8.077  14.969   3.255  0.1716 -0.0248  0.1725
  886POPS   C2B 9309   8.126  14.920   3.613  0.0636  0.2911  0.3047
  886POPS   C3B 9310   8.257  14.719   4.021  0.1831 -0.0075 -0.0396
  886POPS   C4B 9311   8.648  14.813   4.128  0.2134 -0.0234 -0.0846
  887POPC   NC3 9312   2.619   1.800   2.216 -0.3305 -0.1562  0.4651
  887POPC   PO4 9313   2.864   1.797   2.540 -0.0605 -0.2003  0.0164
  887POPC   GL1 9314   2.980   1.886   2.980  0.1838  0.3026 -0.2773
  887POPC   GL2 9315   3.084   1.631   3.120 -0.0882  0.0549  0.0660
  887POPC   C1A 9316   3.402   1.961   3.155 -0.1801 -0.1923 -0.2300
  887POPC   D2A 9317   3.741   1.884   3.484  0.0143 -0.1060  0.1489
  887POPC   C3A 9318   3.662   1.919   3.842 -0.5663  0.0419 -0.1689
  887POPC   C4A 9319   3.673   1.788   4.277  0.0447  0.1916  0.2748
  887POPC   C1B 9320   3.242   1.766   3.569  0.5664  0.2755  0.0390
  887POPC   C2B 9321   3.146   1.985   4.049  0.0950 -0.0249 -0.0481
  887POPC   C3B 9322   3.212   2.057   4.381 -0.0500 -0.2712  0.0471
  887POPC   C4B 9323   2.972   2.086   4.837 -0.3130  0.3316  0.1405
  888POPE   NH3 9324   0.883   8.734   2.370  0.0419 -0.2903 -0.1298
  888POPE   PO4 9325   0.524   8.509   2.247 -0.1018  0.0279 -0.3375
  888POPE   GL1 9326   0.553   8.586   2.802 -0.3850 -0.1648  0.3930
  888POPE   GL2 9327   0.736   9.026   2.779  0.0714  0.2104  0.1051
  888POPE   C1A 9328   0.342   8.476   3.134 -0.2935 -0.2553  0.1019
  888POPE   D2A 9329   0.185   8.365   3.499  0.1112  0.1744 -0.3436
  888POPE   C3A 9330   0.404   8.073   3.771  0.0112 -0.2083  0.1601
  888POPE   C4A 9331   0.729   7.900   4.172 -0.1001 -0.2747 -0.0676
  888POPE   C1B 9332   0.881   9.051   3.175 -0.1293  0.0871 -0.2837
  888POPE   C2B 9333   1.080   9.003   3.579  0.1519  0.0240  0.2279
  888POPE   C3B 9334   1.030   8.828   4.053  0.3029  0.0525 -0.1769
  888POPE   C4B 9335   0.678   8.827   4.318 -0.1302 -0.0394  0.1759
  889POSM   NC3 9336   1.790   8.997   2.078 -0.0989 -0.1805  0.0525
  889POSM   PO4 9337   1.309   8.985   2.311 -0.0062 -0.0531  0.0322
  889POSM   AM1 9338   1.348   9.376   2.513 -0.0822 -0.3160  0.1065
  889POSM   AM2 9339   1.610   9.423   2.378  0.1119  0.1456 -0.0224
  889POSM   T1A 9340   1.364   9.486   2.996  0.1835 -0.0530 -0.2230
  889POSM   C2A 9341   1.154   9.455   3.349  0.0464 -0.0979  0.2040
  889POSM   C3A 9342   1.122   9.453   3.861  0.1119 -0.3397  0.1140
  889POSM   C1B 9343   1.635   9.767   2.652 -0.2283  0.1366  0.0186
  889POSM   D2B 9344   1.352  10.047   2.889 -0.0852 -0.0864  0.0851
  889POSM   C3B 9345   0.980   9.916   3.001 -0.0508 -0.0860 -0.1373
  889POSM   C4B 9346   0.746   9.834   3.416 -0.1296  0.1590  0.4017
  890CHOL   ROH 9347   1.279  12.094   3.227 -0.0581  0.2852  0.0673
  890CHOL    R1 9348   1.318  12.190   3.490 -0.1397  0.2320  0.0988
  890CHOL    R2 9349   1.170  12.099   3.705 -0.1617  0.1420  0.0446
  890CHOL    R3 9350   1.416  12.049   3.811 -0.1719  0.1806  0.0869
  890CHOL    R4 9351   1.227  11.982   4.025 -0.2011  0.1679  0.0611
  890CHOL    R5 9352   1.397  12.118   4.040 -0.2200  0.1923  0.0807
  890CHOL    C1 9353   1.490  11.868   4.312 -0.2337  0.2192  0.1105
  890CHOL    C2 9354   1.408  11.539   4.516 -0.0284  0.1952  0.0840
  891POPC   NC3 9355  12.190   1.336   2.700 -0.0362 -0.0043 -0.1887
  891POPC   PO4 9356  12.119   1.742   2.851 -0.2366 -0.1148 -0.1875
  891POPC   GL1 9357  12.332   1.435   3.178 -0.0340 -0.0147  0.0044
  891POPC   GL2 9358  12.437   1.157   3.122 -0.0804  0.0806  0.3033
  891POPC   C1A 9359  12.320   1.324   3.613 -0.0822  0.0827 -0.0063
  891POPC   D2A 9360  12.613   1.553   3.772 -0.1761  0.1634  0.1409
  891POPC   C3A 9361  12.594   1.764   4.108 -0.2027  0.3632 -0.2078
  891POPC   C4A 9362  12.438   2.040   4.356 -0.3662 -0.2209 -0.0816
  891POPC   C1B 9363  12.802   1.240   3.288 -0.0198 -0.0346  0.3527
  891POPC   C2B 9364  13.071   1.266   3.628 -0.2187 -0.1756  0.2012
  891POPC   C3B 9365  13.027   1.471   3.984 -0.0273 -0.0414  0.1961
  891POPC   C4B 9366  13.062   1.506   4.402  0.0460 -0.0498  0.6233
  892POPC   NC3 9367   5.511   0.866   2.094 -0.0659  0.3307  0.1686
  892POPC   PO4 9368   5.881   0.621   2.245 -0.0851 -0.1661 -0.2020
  892POPC   GL1 9369   5.896   0.531   2.737 -0.3301 -0.1083 -0.2579
  892POPC   GL2 9370   6.185   0.551   2.980  0.3090 -0.0080 -0.2027
  892POPC   C1A 9371   5.741   0.510   3.173 -0.1195 -0.1860 -0.1419
  892POPC   D2A 9372   5.512   0.334   3.588  0.0292  0.1491 -0.4961
  892POPC   C3A 9373   5.406   0.624   3.833  0.1826  0.1452 -0.2840
  892POPC   C4A 9374   5.340   0.938   4.247 -0.0491 -0.0193 -0.2110
  892POPC   C1B 9375   6.489   0.591   3.284  0.0671  0.0209 -0.0294
  892POPC   C2B 9376   6.435   0.589   3.704  0.3050  0.2221 -0.0353
  892POPC   C3B 9377   6.242   0.512   4.111 -0.0680 -0.1237  0.0730
  892POPC   C4B 9378   6.250   0.687   4.578 -0.0552  0.0712  0.0270
  893POPC   NC3 9379   4.692   0.481   1.950  0.1273 -0.0536 -0.2540
  893POPC   PO4 9380   4.869   0.302   2.381 -0.2116 -0.0235 -0.0613
  893POPC   GL1 9381   4.896   0.055   2.712 -0.0677  0.1638 -0.0865
  893POPC   GL2 9382   5.198  -0.058   2.860 -0.1188  0.2048 -0.0529
  893POPC   C1A 9383   4.555  -0.124   3.013 -0.0355  0.1599 -0.5133
  893POPC   D2A 9384   4.462  -0.122   3.386  0.1548 -0.3557  0.1026
  893POPC   C3A 9385   4.408  -0.096   3.781 -0.2995 -0.0252  0.0494
  893POPC   C4A 9386   4.471  -0.281   4.276  0.2657  0.0674  0.0773
  893POPC   C1B 9387   5.038  -0.095   3.224  0.1743  0.3703 -0.1568
  893POPC   C2B 9388   5.104  -0.324   3.657 -0.0970 -0.1245  0.0542
  893POPC   C3B 9389   4.912  -0.260   4.018 -0.1186  0.0205  0.4564
  893POPC   C4B 9390   5.163  -0.367   4.439  0.2666  0.1522  0.2144
  894CHOL   ROH 9391   0.453   9.452   2.941  0.0031  0.0121  0.0739
  894CHOL    R1 9392   0.502   9.480   3.219 -0.1834 -0.0219  0.1108
  894CHOL    R2 9393   0.321   9.395   3.411 -0.1608 -0.3662 -0.0178
  894CHOL    R3 9394   0.536   9.258   3.505 -0.0006 -0.0845  0.0427
  894CHOL    R4 9395   0.435   9.405   3.737 -0.3120 -0.2614  0.0331
  894CHOL    R5 9396   0.639   9.407   3.661 -0.2755  0.0409  0.1127
  894CHOL    C1 9397   0.702   9.281   4.016 -0.2497  0.0640  0.1195
  894CHOL    C2 9398   0.734   9.556   4.170  0.0831  0.0781 -0.1777
  895CHOL   ROH 9399   0.518  11.395   2.660 -0.2514  0.0589  0.1095
  895CHOL    R1 9400   0.622  11.410   2.924 -0.1396  0.1229  0.0620
  895CHOL    R2 9401   0.508  11.568   3.120 -0.2489 -0.0788  0.1541
  895CHOL    R3 9402   0.503  11.335   3.259  0.1244 -0.1237  0.1058
  895CHOL    R4 9403   0.455  11.541   3.460 -0.1668 -0.2236  0.1573
  895CHOL    R5 9404   0.608  11.387   3.467  0.0781 -0.0003  0.1067
  895CHOL    C1 9405   0.419  11.306   3.789  0.2315 -0.3502  0.1139
  895CHOL    C2 9406   0.353  11.172   4.157 -0.1835 -0.0769 -0.1354
  896CHOL   ROH 9407  12.871  13.971   2.627  0.1230 -0.0403  0.0801
  896CHOL    R1 9408  12.993  14.025   2.877  0.1313 -0.0167  0.0717
  896CHOL    R2 9409  12.881  14.193   3.065  0.0875 -0.0757  0.1020
  896CHOL    R3 9410  12.910  13.977   3.228  0.1875 -0.0816  0.0759
  896CHOL    R4 9411  12.843  14.198   3.408 -0.1052 -0.1746  0.0833
  896CHOL    R5 9412  13.015  14.065   3.424  0.0035 -0.0273  0.1509
  896CHOL    C1 9413  12.849  13.999   3.761 -0.1235 -0.2378  0.0480
  896CHOL    C2 9414  12.881  14.011   4.190  0.2262 -0.2321 -0.1939
  897POPC   NC3 9415   1.988  11.273   2.423  0.1504 -0.0284  0.1324
  897POPC   PO4 9416   1.923  11.522   2.799  0.0482  0.0459  0.2379
  897POPC   GL1 9417   1.680  11.571   3.103  0.3034 -0.1649  0.1269
  897POPC   GL2 9418   1.788  11.858   3.204  0.4433  0.1481 -0.1101
  897POPC   C1A 9419   1.427  11.661   3.410  0.0484  0.1854 -0.1389
  897POPC   D2A 9420   1.384  11.515   3.785 -0.1555  0.2780  0.0231
  897POPC   C3A 9421   1.484  11.195   4.098 -0.0609  0.1597  0.0660
  897POPC   C4A 9422   1.697  10.799   4.305  0.1668 -0.3938 -0.0833
  897POPC   C1B 9423   1.872  11.986   3.581  0.0322 -0.2438  0.0911
  897POPC   C2B 9424   1.816  11.747   3.924 -0.1955 -0.0057  0.1527
  897POPC   C3B 9425   1.995  11.598   4.246 -0.2175 -0.0279 -0.2319
  897POPC   C4B 9426   1.852  11.814   4.608 -0.0747  0.0125 -0.3113
  898POPC   NC3 9427   1.499   2.273   2.759 -0.1613  0.3192  0.1134
  898POPC   PO4 9428   1.743   2.665   2.698 -0.1494 -0.1462 -0.1878
  898POPC   GL1 9429   1.347   2.949   2.810  0.1101 -0.1095 -0.2673
  898POPC   GL2 9430   1.140   2.829   2.894 -0.4099  0.0992  0.1339
  898POPC   C1A 9431   1.326   3.247   3.194 -0.0421 -0.2424  0.1565
  898POPC   D2A 9432   1.180   3.068   3.572  0.1664 -0.0445  0.0784
  898POPC   C3A 9433   1.274   3.213   3.884  0.0069  0.1786 -0.2281
  898POPC   C4A 9434   1.561   3.405   4.218  0.1259  0.1198  0.0718
  898POPC   C1B 9435   1.394   2.718   3.259 -0.0857  0.0600  0.0451
  898POPC   C2B 9436   1.373   2.572   3.618  0.1404 -0.1204 -0.1464
  898POPC   C3B 9437   1.326   2.734   3.948  0.2085  0.0898 -0.1005
  898POPC   C4B 9438   1.087   2.840   4.210 -0.0651 -0.0311  0.1822
  899POPE   NH3 9439   1.181   3.369   2.566 -0.0785  0.0857 -0.0529
  899POPE   PO4 9440   0.956   2.965   2.383 -0.0812 -0.4221  0.1105
  899POPE   GL1 9441   0.783   3.167   2.738  0.0601  0.4606 -0.0048
  899POPE   GL2 9442   0.582   3.351   2.700 -0.0101  0.2493 -0.0612
  899POPE   C1A 9443   0.838   3.117   3.193  0.2904 -0.3742 -0.2882
  899POPE   D2A 9444   0.752   3.215   3.616 -0.1429  0.1792 -0.1966
  899POPE   C3A 9445   0.757   3.124   3.969 -0.1889  0.1224  0.0862
  899POPE   C4A 9446   0.510   3.097   4.365 -0.1038 -0.1318 -0.3942
  899POPE   C1B 9447   0.512   3.409   3.150  0.3598 -0.0468 -0.0273
  899POPE   C2B 9448   0.288   3.693   3.317 -0.3277  0.2106  0.2311
  899POPE   C3B 9449   0.437   3.720   3.662  0.1117 -0.1596 -0.1930
  899POPE   C4B 9450   0.509   3.871   4.021 -0.1676  0.1342 -0.2894
  900POPE   NH3 9451  11.172   0.724   2.048  0.1105  0.1964  0.0786
  900POPE   PO4 9452  11.358   0.718   2.432  0.0851  0.2336 -0.0601
  900POPE   GL1 9453  11.235   0.670   2.839  0.0360 -0.3305  0.2195
  900POPE   GL2 9454  10.960   0.839   2.909  0.1824 -0.0711 -0.0180
  900POPE   C1A 9455  11.571   0.783   3.184 -0.1511  0.0674 -0.0792
  900POPE   D2A 9456  11.509   0.988   3.617  0.0782  0.0108  0.1043
  900POPE   C3A 9457  11.595   0.801   3.967 -0.0395  0.0874  0.0999
  900POPE   C4A 9458  11.545   0.578   4.391 -0.0599  0.2476 -0.0585
  900POPE   C1B 9459  11.089   0.719   3.313 -0.0417  0.1828  0.0322
  900POPE   C2B 9460  11.118   0.730   3.796  0.0035  0.0771  0.2667
  900POPE   C3B 9461  11.106   0.512   4.194  0.0814 -0.2830 -0.2050
  900POPE   C4B 9462  10.951   0.022   4.309  0.2481  0.2631  0.2048
  901POSM   NC3 9463  14.812   3.106   2.186  0.0335  0.0787  0.1081
  901POSM   PO4 9464  14.622   2.782   2.342  0.2916 -0.1261 -0.2165
  901POSM   AM1 9465  14.367   2.674   2.699  0.1635  0.1044  0.0910
  901POSM   AM2 9466  14.066   2.785   2.551 -0.0964  0.3018 -0.1466
  901POSM   T1A 9467  14.226   2.429   2.977 -0.1128 -0.0386  0.0420
  901POSM   C2A 9468  14.123   2.488   3.380 -0.1896 -0.0838  0.1029
  901POSM   C3A 9469  14.078   2.456   3.806  0.0277 -0.3513 -0.0301
  901POSM   C1B 9470  13.777   2.717   2.883  0.2169 -0.1523 -0.1699
  901POSM   D2B 9471  13.648   2.696   3.356 -0.2344  0.1891 -0.0358
  901POSM   C3B 9472  13.684   2.796   3.659 -0.0427  0.2604  0.0362
  901POSM   C4B 9473  13.692   2.737   4.054 -0.3158 -0.3037 -0.0742
  902POSM   NC3 9474   0.124   9.578   1.741  0.1856 -0.0635 -0.3190
  902POSM   PO4 9475   0.275   9.808   2.125 -0.0953  0.0032 -0.2613
  902POSM   AM1 9476   0.242   9.733   2.523 -0.1606 -0.0228  0.0587
  902POSM   AM2 9477   0.491   9.827   2.630 -0.1951  0.3098 -0.0791
  902POSM   T1A 9478   0.001   9.693   2.974 -0.1804  0.5617 -0.4039
  902POSM   C2A 9479  -0.095   9.638   3.519 -0.0069 -0.2569  0.0433
  902POSM   C3A 9480  -0.150   9.614   3.952 -0.3991  0.5136  0.2525
  902POSM   C1B 9481   0.415   9.913   2.995 -0.0776  0.0236  0.0056
  902POSM   D2B 9482   0.288   9.976   3.453  0.1508 -0.1023 -0.0125
  902POSM   C3B 9483   0.384   9.884   3.839 -0.1643 -0.3079 -0.1159
  902POSM   C4B 9484   0.260   9.616   4.234 -0.3251 -0.2108 -0.2000
  903POPC   NC3 9485  11.128  14.333   2.581  0.2166  0.1973 -0.4020
  903POPC   PO4 9486  11.421  14.685   2.526  0.0126 -0.0458  0.1977
  903POPC   GL1 9487  11.242  14.719   2.968 -0.0609 -0.1037 -0.0525
  903POPC   GL2 9488  10.914  14.852   3.046 -0.0362 -0.0987 -0.2400
  903POPC   C1A 9489  11.293  14.417   3.244  0.0513  0.4657  0.1955
  903POPC   D2A 9490  11.367  14.280   3.715 -0.1260  0.1840 -0.1241
  903POPC   C3A 9491  11.304  14.478   4.089  0.0544  0.2952 -0.0941
  903POPC   C4A 9492  10.992  14.535   4.287 -0.3187 -0.2158 -0.0769
  903POPC   C1B 9493  11.010  14.837   3.485 -0.0475 -0.1043  0.3188
  903POPC   C2B 9494  10.950  14.878   3.885 -0.1821 -0.2498 -0.0700
  903POPC   C3B 9495  10.744  14.920   4.360  0.1060 -0.0426  0.3937
  903POPC   C4B 9496  10.634  14.854   4.832  0.0367 -0.0128 -0.3226
  904POPE   NH3 9497  15.285   5.155   2.320  0.2205 -0.3395 -0.0561
  904POPE   PO4 9498  15.236   5.550   2.116 -0.1230 -0.2378  0.2484
  904POPE   GL1 9499  15.090   5.716   2.470 -0.2590  0.0029 -0.3657
  904POPE   GL2 9500  14.818   5.680   2.567  0.0021 -0.0725  0.0933
  904POPE   C1A 9501  15.207   5.901   2.897  0.0551  0.1374 -0.0634
  904POPE   D2A 9502  15.168   5.990   3.366 -0.2675 -0.2487  0.3388
  904POPE   C3A 9503  15.520   6.348   3.545 -0.2017 -0.0559  0.0441
  904POPE   C4A 9504  15.620   6.512   3.957 -0.2324 -0.2074 -0.2026
  904POPE   C1B 9505  14.938   5.447   2.893 -0.0794 -0.0180  0.1431
  904POPE   C2B 9506  14.992   5.530   3.251 -0.0452 -0.1960  0.3987
  904POPE   C3B 9507  15.157   5.625   3.677 -0.0661  0.1064  0.0181
  904POPE   C4B 9508  15.370   5.445   3.995  0.1687  0.0385  0.2773
  905CHOL   ROH 9509   1.795   3.051   3.055 -0.0101 -0.0782 -0.0480
  905CHOL    R1 9510   1.859   3.105   3.325  0.0276 -0.0276 -0.0661
  905CHOL    R2 9511   1.674   3.078   3.529  0.0563  0.0055 -0.0329
  905CHOL    R3 9512   1.866   2.918   3.637  0.0753  0.0284 -0.0340
  905CHOL    R4 9513   1.727   3.034   3.868  0.0905  0.0410 -0.0340
  905CHOL    R5 9514   1.942   3.037   3.830  0.0853  0.0504 -0.0531
  905CHOL    C1 9515   1.938   2.857   4.166  0.1282  0.0832 -0.0357
  905CHOL    C2 9516   1.584   2.910   4.352 -0.2160 -0.4489 -0.2072
  906POPE   NH3 9517  15.425   3.885   2.439  0.4260  0.0233 -0.1026
  906POPE   PO4 9518  15.489   3.661   2.698 -0.3492  0.2349  0.0529
  906POPE   GL1 9519  15.560   4.011   2.975  0.2091 -0.0446 -0.0152
  906POPE   GL2 9520  15.370   4.216   2.994 -0.2742  0.1934 -0.5188
  906POPE   C1A 9521  15.711   4.151   3.345 -0.0624 -0.1584  0.0052
  906POPE   D2A 9522  15.704   4.196   3.751  0.0533  0.1021  0.0437
  906POPE   C3A 9523  15.373   4.452   3.753  0.0546 -0.1171 -0.2310
  906POPE   C4A 9524  15.360   4.869   3.889 -0.3109  0.1077 -0.0806
  906POPE   C1B 9525  15.033   4.203   3.366  0.0428 -0.0898  0.1983
  906POPE   C2B 9526  14.885   4.215   3.713  0.0286  0.0328  0.0450
  906POPE   C3B 9527  14.916   4.257   4.092 -0.1267 -0.2365  0.0774
  906POPE   C4B 9528  15.152   4.537   4.414  0.3477  0.1605  0.2206
  907POSM   NC3 9529   1.101  14.422   2.163  0.3001 -0.0223  0.2190
  907POSM   PO4 9530   0.990  14.059   2.439 -0.0205 -0.1382 -0.1489
  907POSM   AM1 9531   0.939  13.822   2.874 -0.0481 -0.0918  0.0344
  907POSM   AM2 9532   1.032  13.507   2.830  0.0684 -0.0066  0.2386
  907POSM   T1A 9533   1.063  13.741   3.294  0.0509  0.2867 -0.0866
  907POSM   C2A 9534   1.162  13.633   3.707 -0.3108  0.0622  0.3775
  907POSM   C3A 9535   1.537  13.596   3.993  0.1234 -0.1128  0.0915
  907POSM   C1B 9536   0.985  13.219   3.133  0.1189 -0.0502 -0.1069
  907POSM   D2B 9537   1.215  13.142   3.523  0.1802 -0.0423  0.1011
  907POSM   C3B 9538   1.050  13.107   3.893  0.2909 -0.0666 -0.0730
  907POSM   C4B 9539   0.913  13.181   4.272  0.3105  0.0177 -0.2514
  908POPC   NC3 9540  10.474  14.985   2.676 -0.1096  0.1225 -0.1747
  908POPC   PO4 9541  10.086  14.853   2.824  0.1639  0.3806 -0.0852
  908POPC   GL1 9542   9.992  15.166   3.198 -0.2960  0.4194  0.1833
  908POPC   GL2 9543   9.859  15.471   3.132  0.0399 -0.3069 -0.2009
  908POPC   C1A 9544   9.998  15.189   3.637  0.2353  0.0435 -0.3999
  908POPC   D2A 9545   9.985  14.994   3.992  0.2764  0.1480  0.0182
  908POPC   C3A 9546   9.952  15.265   4.356 -0.0271  0.1638  0.0806
  908POPC   C4A 9547  10.102  15.721   4.492  0.0869  0.2079  0.1447
  908POPC   C1B 9548   9.759  15.894   3.356 -0.2630  0.3311  0.2171
  908POPC   C2B 9549   9.692  15.961   3.772  0.0420 -0.0083  0.0991
  908POPC   C3B 9550   9.607  15.968   4.175 -0.3092 -0.0361  0.1225
  908POPC   C4B 9551   9.571  16.061   4.596 -0.0611 -0.1490  0.0178
  909POSM   NC3 9552   3.314  13.577   1.915 -0.1942 -0.1078  0.0057
  909POSM   PO4 9553   3.034  13.873   2.036 -0.1645 -0.1433 -0.0756
  909POSM   AM1 9554   3.094  14.134   2.462 -0.2503  0.0126  0.3827
  909POSM   AM2 9555   3.149  13.956   2.647  0.2063  0.0145  0.1795
  909POSM   T1A 9556   2.885  14.443   2.667  0.0747  0.0370  0.0479
  909POSM   C2A 9557   2.526  14.580   2.867  0.2012 -0.0309  0.0160
  909POSM   C3A 9558   2.092  14.684   2.962 -0.1228  0.0485 -0.0265
  909POSM   C1B 9559   2.737  13.967   2.909 -0.0774  0.1997  0.0190
  909POSM   D2B 9560   2.361  13.998   3.075 -0.1449  0.2076 -0.0032
  909POSM   C3B 9561   2.342  14.394   3.331  0.0984 -0.0563 -0.1449
  909POSM   C4B 9562   2.486  14.511   3.728 -0.2873  0.0574  0.2307
  910POPC   NC3 9563   3.588   1.446   2.181  0.0521  0.1972  0.3074
  910POPC   PO4 9564   3.364   1.164   2.493  0.0066  0.0825  0.0863
  910POPC   GL1 9565   3.405   1.269   3.013 -0.3677  0.1261  0.4245
  910POPC   GL2 9566   3.579   1.439   3.207 -0.0188  0.3372  0.0895
  910POPC   C1A 9567   3.552   0.979   3.421  0.3099  0.3044 -0.1467
  910POPC   D2A 9568   4.039   0.967   3.586 -0.0003 -0.5384  0.1138
  910POPC   C3A 9569   4.125   0.949   3.970  0.1862 -0.2331  0.0358
  910POPC   C4A 9570   4.386   0.720   4.213 -0.1437 -0.3268  0.0456
  910POPC   C1B 9571   3.685   1.359   3.703  0.1396 -0.0979  0.2776
  910POPC   C2B 9572   3.653   1.256   4.102  0.0021  0.0802  0.2638
  910POPC   C3B 9573   3.803   1.081   4.400  0.0013 -0.0622 -0.1357
  910POPC   C4B 9574   3.880   1.090   4.800 -0.1014  0.0769  0.0213
  911POSM   NC3 9575   0.631  11.106   2.240 -0.0007  0.0492  0.1500
  911POSM   PO4 9576   0.550  10.761   2.141  0.5999  0.0517  0.1794
  911POSM   AM1 9577   0.299  10.649   2.485  0.4501  0.1602  0.1432
  911POSM   AM2 9578   0.202  11.023   2.584 -0.0468 -0.1119 -0.4124
  911POSM   T1A 9579   0.489  10.424   2.869 -0.0933 -0.0295  0.1161
  911POSM   C2A 9580   0.678  10.271   3.252 -0.1031  0.0452  0.4237
  911POSM   C3A 9581   0.776  10.281   3.621  0.1768  0.0592  0.0304
  911POSM   C1B 9582   0.068  11.193   3.040 -0.0271 -0.0292  0.0718
  911POSM   D2B 9583   0.124  11.067   3.360  0.1274  0.0226 -0.3698
  911POSM   C3B 9584   0.063  10.898   3.780 -0.2816 -0.1014 -0.3222
  911POSM   C4B 9585   0.114  10.736   4.113  0.1639  0.1710 -0.1651
  912POPS   CNO 9586   0.004   4.382   2.118 -0.0903 -0.1776 -0.0012
  912POPS   PO4 9587  -0.290   4.296   2.554  0.1149  0.1883  0.1166
  912POPS   GL1 9588  -0.627   4.376   2.901 -0.0688 -0.1756  0.2532
  912POPS   GL2 9589  -0.834   4.520   2.937  0.2186  0.0830 -0.0050
  912POPS   C1A 9590  -0.843   4.077   3.135 -0.1292  0.0958  0.2198
  912POPS   D2A 9591  -0.826   3.812   3.485  0.0058 -0.2384  0.0176
  912POPS   C3A 9592  -1.018   3.808   3.880 -0.3206  0.0012 -0.2341
  912POPS   C4A 9593  -1.091   4.040   4.309  0.2177 -0.0022 -0.1797
  912POPS   C1B 9594  -0.866   4.558   3.396  0.1009 -0.3391 -0.3129
  912POPS   C2B 9595  -0.961   4.474   3.849 -0.0897 -0.0078 -0.4067
  912POPS   C3B 9596  -1.003   4.477   4.248 -0.2716  0.0478  0.2629
  912POPS   C4B 9597  -0.874   4.277   4.643  0.0542  0.0160 -0.3559
  913POSM   NC3 9598  12.006  14.258   2.239  0.5360 -0.0333  0.2600
  913POSM   PO4 9599  12.414  14.151   2.280  0.0565 -0.2629 -0.0470
  913POSM   AM1 9600  12.462  14.278   2.773  0.1963  0.0171  0.2486
  913POSM   AM2 9601  12.431  14.637   2.918  0.2008  0.4119 -0.1136
  913POSM   T1A 9602  12.404  14.100   3.158  0.0019  0.0097  0.0162
  913POSM   C2A 9603  12.409  13.968   3.512 -0.0215 -0.1751  0.1791
  913POSM   C3A 9604  12.415  13.884   3.911 -0.0175  0.1678  0.1182
  913POSM   C1B 9605  12.392  14.575   3.379 -0.1526 -0.0330 -0.0522
  913POSM   D2B 9606  12.547  14.428   3.778  0.1093  0.2276  0.2327
  913POSM   C3B 9607  12.390  14.457   4.186 -0.0772  0.0364  0.1366
  913POSM   C4B 9608  12.567  14.238   4.653 -0.2561  0.0018 -0.0362
  914POPC   NC3 9609   1.711   2.323   2.232 -0.0036 -0.2622  0.0568
  914POPC   PO4 9610   1.952   2.222   2.525  0.0395  0.2525 -0.1922
  914POPC   GL1 9611   2.081   2.388   3.011  0.0817 -0.1281 -0.1506
  914POPC   GL2 9612   1.780   2.429   3.153 -0.1340  0.3052  0.0364
  914POPC   C1A 9613   2.211   2.223   3.335  0.0921 -0.1483  0.0543
  914POPC   D2A 9614   2.552   2.314   3.497 -0.1444  0.1189  0.0897
  914POPC   C3A 9615   2.774   2.317   3.845 -0.0424 -0.1160  0.1368
  914POPC   C4A 9616   2.908   2.476   4.281 -0.1106 -0.0705 -0.1348
  914POPC   C1B 9617   1.809   2.396   3.525 -0.0285 -0.0481 -0.3574
  914POPC   C2B 9618   1.855   2.417   3.923 -0.1729 -0.0003 -0.1368
  914POPC   C3B 9619   1.989   2.318   4.361 -0.0252  0.1435  0.1941
  914POPC   C4B 9620   2.060   2.083   4.659 -0.0715  0.1770  0.2135
  915CHOL   ROH 9621  14.530   5.887   2.973 -0.1052  0.2932  0.0243
  915CHOL    R1 9622  14.694   5.931   3.199 -0.0138  0.1818 -0.0200
  915CHOL    R2 9623  14.634   6.120   3.392  0.1428  0.1894  0.0180
  915CHOL    R3 9624  14.659   5.908   3.561  0.0848  0.1595 -0.0102
  915CHOL    R4 9625  14.709   6.143   3.729 -0.2362  0.1559  0.1088
  915CHOL    R5 9626  14.838   5.969   3.707 -0.1050  0.2340  0.2023
  915CHOL    C1 9627  14.775   5.957   4.083 -0.5113  0.1084  0.1351
  915CHOL    C2 9628  15.037   5.724   4.178  0.1560 -0.1824  0.2065
  916POPE   NH3 9629   3.174   0.034   2.507 -0.2844 -0.4681  0.0630
  916POPE   PO4 9630   3.673   0.202   2.597  0.0447 -0.1045 -0.0289
  916POPE   GL1 9631   3.542   0.001   2.859 -0.1066  0.2638  0.0493
  916POPE   GL2 9632   3.601  -0.381   2.788 -0.1039 -0.0619  0.0940
  916POPE   C1A 9633   3.536   0.021   3.300 -0.0036 -0.2461 -0.3318
  916POPE   D2A 9634   3.604   0.120   3.736 -0.0591  0.2172  0.0999
  916POPE   C3A 9635   3.555   0.038   4.229 -0.0122  0.1994  0.3988
  916POPE   C4A 9636   3.511  -0.155   4.627 -0.1931 -0.0639 -0.2252
  916POPE   C1B 9637   3.770  -0.413   3.134  0.1857  0.0725  0.2854
  916POPE   C2B 9638   3.710  -0.468   3.583  0.0859 -0.2847  0.2296
  916POPE   C3B 9639   3.605  -0.478   3.949 -0.0809  0.0544 -0.1880
  916POPE   C4B 9640   3.640  -0.643   4.412  0.3517 -0.0546  0.0642
  917POPS   CNO 9641   4.002   0.557   2.752 -0.0463  0.0520  0.2361
  917POPS   PO4 9642   4.133   0.824   2.493 -0.2101 -0.2052 -0.1652
  917POPS   GL1 9643   4.343   0.832   2.942 -0.1694 -0.0675 -0.3176
  917POPS   GL2 9644   4.213   0.712   3.251 -0.0842  0.0998  0.2567
  917POPS   C1A 9645   4.752   0.852   3.083 -0.0796  0.1636  0.1787
  917POPS   D2A 9646   5.155   0.937   3.116 -0.1840  0.1818 -0.0650
  917POPS   C3A 9647   5.500   0.870   3.419 -0.2690 -0.2504  0.0890
  917POPS   C4A 9648   5.895   0.734   3.772  0.0059  0.0473 -0.1131
  917POPS   C1B 9649   4.484   0.521   3.712  0.0468 -0.2231 -0.1307
  917POPS   C2B 9650   4.542   0.263   4.080  0.1619 -0.1735 -0.2148
  917POPS   C3B 9651   4.764   0.231   4.355 -0.0343  0.1548 -0.4352
  917POPS   C4B 9652   4.810  -0.144   4.668  0.1187 -0.0149  0.0152
  918POSM   NC3 9653  14.342   3.820   2.241 -0.0133 -0.1087  0.2867
  918POSM   PO4 9654  14.702   3.648   2.260 -0.1173 -0.1082 -0.0580
  918POSM   AM1 9655  14.716   3.416   2.629 -0.2303 -0.0577  0.3962
  918POSM   AM2 9656  14.766   3.050   2.722  0.1135 -0.0919  0.2259
  918POSM   T1A 9657  14.571   3.572   3.034 -0.0987  0.1458  0.1947
  918POSM   C2A 9658  14.183   3.727   3.162 -0.1330 -0.2121  0.1368
  918POSM   C3A 9659  14.064   3.633   3.629 -0.1477  0.0742 -0.1842
  918POSM   C1B 9660  14.814   3.084   3.156  0.0648 -0.2219 -0.1487
  918POSM   D2B 9661  14.874   3.335   3.550 -0.1594 -0.3469 -0.0430
  918POSM   C3B 9662  14.890   3.608   3.893 -0.0229 -0.3510 -0.1597
  918POSM   C4B 9663  14.830   3.808   4.288  0.2943 -0.0381  0.2144
  919POPC   NC3 9664  14.309   5.251   2.080 -0.0737  0.2062 -0.1867
  919POPC   PO4 9665  14.705   5.167   2.219  0.0875  0.2365 -0.0574
  919POPC   GL1 9666  14.890   4.993   2.611  0.0094 -0.0215  0.0360
  919POPC   GL2 9667  15.096   4.834   2.712  0.0699  0.2613 -0.0380
  919POPC   C1A 9668  14.762   5.003   3.039 -0.2591 -0.3196  0.2738
  919POPC   D2A 9669  14.799   5.060   3.355 -0.0665  0.3126  0.0387
  919POPC   C3A 9670  14.482   4.970   3.645 -0.2320 -0.1357  0.0352
  919POPC   C4A 9671  14.367   4.936   4.165  0.1552 -0.1018  0.1221
  919POPC   C1B 9672  15.090   4.677   3.180  0.1972 -0.1541  0.2524
  919POPC   C2B 9673  14.988   4.694   3.617  0.0195  0.0416  0.0051
  919POPC   C3B 9674  14.850   4.764   4.083 -0.1994  0.0698  0.2805
  919POPC   C4B 9675  14.806   4.818   4.535  0.2576  0.2784  0.1131
  920POSM   NC3 9676   1.647  13.013   1.955  0.0447 -0.0135 -0.0294
  920POSM   PO4 9677   1.525  13.188   2.407  0.1889 -0.0429  0.3698
  920POSM   AM1 9678   1.476  13.215   2.776 -0.2436  0.3350 -0.0523
  920POSM   AM2 9679   1.716  12.949   2.880  0.0752 -0.1773 -0.1000
  920POSM   T1A 9680   1.424  13.390   3.118 -0.3155 -0.0039  0.0967
  920POSM   C2A 9681   1.578  13.460   3.395 -0.0980 -0.0693  0.0798
  920POSM   C3A 9682   1.924  13.425   3.701 -0.2607  0.1364 -0.0202
  920POSM   C1B 9683   1.726  12.965   3.321 -0.0586  0.0403  0.4552
  920POSM   D2B 9684   1.593  13.041   3.783  0.0831  0.1596 -0.3410
  920POSM   C3B 9685   1.571  12.824   4.253  0.1548 -0.0915 -0.0309
  920POSM   C4B 9686   1.880  12.662   4.342 -0.4169 -0.1636 -0.0513
  921POPE   NH3 9687  12.196   0.363   2.688 -0.0601  0.1215 -0.0089
  921POPE   PO4 9688  12.249   0.836   2.666 -0.0847 -0.2961 -0.3235
  921POPE   GL1 9689  12.515   0.647   2.995  0.0903  0.0866  0.2609
  921POPE   GL2 9690  12.272   0.447   3.183  0.1702 -0.1771 -0.1181
  921POPE   C1A 9691  12.577   0.810   3.467 -0.0822 -0.2318 -0.1214
  921POPE   D2A 9692  12.702   0.967   3.819  0.1097 -0.0927 -0.3324
  921POPE   C3A 9693  12.539   1.136   4.032 -0.0379  0.3092  0.0053
  921POPE   C4A 9694  12.442   1.293   4.293 -0.0795 -0.3997  0.0692
  921POPE   C1B 9695  12.281   0.397   3.571  0.1155  0.1344 -0.4697
  921POPE   C2B 9696  12.385   0.511   3.896 -0.0189 -0.0856  0.0129
  921POPE   C3B 9697  12.693   0.689   4.228 -0.2391  0.0130 -0.4377
  921POPE   C4B 9698  12.960   1.047   4.262 -0.2471  0.0169 -0.1126
  922POPE   NH3 9699  13.598   0.957   2.594 -0.3404 -0.1597  0.1063
  922POPE   PO4 9700  13.317   1.248   2.539  0.0177 -0.0035 -0.2748
  922POPE   GL1 9701  13.443   1.349   2.866  0.0085 -0.2423  0.0652
  922POPE   GL2 9702  13.222   1.234   3.023  0.1914 -0.0367  0.1735
  922POPE   C1A 9703  13.310   1.573   3.282 -0.0246 -0.0984 -0.0026
  922POPE   D2A 9704  13.127   1.845   3.480  0.0797  0.0401 -0.1228
  922POPE   C3A 9705  13.102   2.061   3.883  0.1079  0.2649 -0.1558
  922POPE   C4A 9706  12.897   2.296   4.112  0.4306  0.1930 -0.0365
  922POPE   C1B 9707  13.485   1.146   3.384 -0.0220 -0.2450  0.1697
  922POPE   C2B 9708  13.512   1.141   3.773  0.0155 -0.0854 -0.3625
  922POPE   C3B 9709  13.501   1.223   4.249  0.1544 -0.1808  0.0893
  922POPE   C4B 9710  13.337   1.044   4.653  0.3430 -0.1450  0.0586
  923CHOL   ROH 9711  10.548  15.304   3.155  0.0846 -0.2755  0.1533
  923CHOL    R1 9712  10.474  15.227   3.417 -0.0424 -0.0727  0.1785
  923CHOL    R2 9713  10.654  15.216   3.626 -0.0895 -0.1584  0.2136
  923CHOL    R3 9714  10.474  15.378   3.748  0.0563  0.0880  0.1082
  923CHOL    R4 9715  10.612  15.240   3.968 -0.4169 -0.3015  0.1872
  923CHOL    R5 9716  10.396  15.250   3.935 -0.3763  0.0972 -0.0520
  923CHOL    C1 9717  10.419  15.407   4.282 -0.4705 -0.1535  0.0728
  923CHOL    C2 9718  10.429  15.280   4.606 -0.1246 -0.2208  0.1105
  924CHOL   ROH 9719  13.833   3.169   2.765  0.0171 -0.1261  0.0441
  924CHOL    R1 9720  13.774   3.297   3.010  0.0233 -0.0555  0.0105
  924CHOL    R2 9721  13.561   3.223   3.170 -0.0915  0.1145 -0.0530
  924CHOL    R3 9722  13.754   3.202   3.360 -0.1694 -0.0063  0.0121
  924CHOL    R4 9723  13.508   3.258   3.510 -0.1585  0.2673 -0.0792
  924CHOL    R5 9724  13.695   3.368   3.523 -0.0621  0.0960 -0.0558
  924CHOL    C1 9725  13.657   3.258   3.886 -0.2706  0.2428 -0.0332
  924CHOL    C2 9726  13.752   3.502   4.141 -0.1970  0.0321  0.0781
  925POPS   CNO 9727   2.501   1.412   2.531 -0.1982 -0.2060  0.0020
  925POPS   PO4 9728   2.644   1.076   2.603  0.1466  0.1500  0.0606
  925POPS   GL1 9729   2.571   1.193   3.044  0.0689  0.1598 -0.1084
  925POPS   GL2 9730   2.587   1.482   3.012 -0.0336  0.1303  0.2906
  925POPS   C1A 9731   2.569   1.193   3.442 -0.0772  0.1410 -0.0545
  925POPS   D2A 9732   2.565   1.347   3.871  0.1465 -0.0455  0.1994
  925POPS   C3A 9733   2.637   1.239   4.264 -0.0513 -0.1426  0.1124
  925POPS   C4A 9734   2.488   1.013   4.551  0.2831  0.0299 -0.1136
  925POPS   C1B 9735   2.541   1.877   3.222 -0.1095 -0.0075  0.3100
  925POPS   C2B 9736   2.791   1.882   3.650 -0.0899  0.0273  0.1489
  925POPS   C3B 9737   2.668   1.797   4.061  0.2181  0.1810 -0.0882
  925POPS   C4B 9738   2.351   1.648   4.241  0.0821  0.3880 -0.0360
  926POPS   CNO 9739  14.245  12.448   2.001 -0.4255  0.1101  0.1778
  926POPS   PO4 9740  13.947  12.605   2.271 -0.1351  0.2205 -0.0429
  926POPS   GL1 9741  13.813  12.339   2.646 -0.2376  0.1561  0.1141
  926POPS   GL2 9742  13.690  12.140   2.641  0.4957 -0.2477  0.1053
  926POPS   C1A 9743  13.780  12.525   3.086 -0.0916 -0.3208 -0.1497
  926POPS   D2A 9744  13.979  12.844   3.337  0.2281  0.0629  0.2754
  926POPS   C3A 9745  14.142  13.193   3.114 -0.2560 -0.1586 -0.0871
  926POPS   C4A 9746  14.468  13.472   2.857  0.0015  0.2435 -0.0271
  926POPS   C1B 9747  13.681  11.999   3.044 -0.2432 -0.1558 -0.2456
  926POPS   C2B 9748  13.702  12.154   3.464 -0.1339 -0.3909  0.1682
  926POPS   C3B 9749  13.560  12.263   3.847 -0.3991  0.1374  0.0268
  926POPS   C4B 9750  13.548  12.076   4.289  0.1576 -0.0007  0.1212
  927POPE   NH3 9751  14.867  12.148   2.320 -0.2811 -0.1799  0.0237
  927POPE   PO4 9752  15.287  11.945   2.367  0.1501  0.1444 -0.0709
  927POPE   GL1 9753  15.274  12.033   2.798  0.0060  0.5432 -0.0138
  927POPE   GL2 9754  15.270  12.435   2.890  0.0517  0.0496  0.0682
  927POPE   C1A 9755  15.064  11.907   3.130  0.2553  0.0204  0.0400
  927POPE   D2A 9756  14.780  11.945   3.347 -0.0803  0.0548  0.2400
  927POPE   C3A 9757  14.938  11.871   3.696 -0.1975  0.0269  0.0682
  927POPE   C4A 9758  15.039  11.849   4.136 -0.1048  0.0442 -0.0119
  927POPE   C1B 9759  15.338  12.299   3.273  0.0183 -0.0331 -0.2150
  927POPE   C2B 9760  15.279  12.281   3.574  0.1759  0.1015  0.1144
  927POPE   C3B 9761  15.348  12.323   4.018 -0.4280 -0.2490 -0.1588
  927POPE   C4B 9762  15.328  12.562   4.450  0.0348  0.1233 -0.7172
  928POPE   NH3 9763  13.580  12.924   1.991 -0.2611 -0.2006 -0.0244
  928POPE   PO4 9764  13.468  12.466   2.155  0.2807 -0.0417 -0.1448
  928POPE   GL1 9765  13.527  12.732   2.521  0.3013  0.0728 -0.2376
  928POPE   GL2 9766  13.186  12.632   2.595  0.2355 -0.2458 -0.2153
  928POPE   C1A 9767  13.727  13.103   2.825 -0.1515 -0.0581  0.1211
  928POPE   D2A 9768  13.699  13.395   3.192 -0.2950 -0.1374 -0.2706
  928POPE   C3A 9769  13.905  13.250   3.562 -0.1471  0.4212 -0.1126
  928POPE   C4A 9770  14.024  12.960   3.775 -0.0638 -0.2985 -0.3019
  928POPE   C1B 9771  13.316  12.773   2.995  0.1589  0.2444 -0.2442
  928POPE   C2B 9772  13.412  12.645   3.451 -0.1856  0.0793  0.2527
  928POPE   C3B 9773  13.544  12.843   3.795 -0.3008 -0.5693  0.2434
  928POPE   C4B 9774  13.777  13.245   4.060 -0.1486  0.0779  0.1412
  929POSM   NC3 9775   4.258  14.945   2.157 -0.1238  0.0388 -0.2901
  929POSM   PO4 9776   4.454  15.358   2.253  0.2246 -0.1489 -0.1871
  929POSM   AM1 9777   4.249  15.559   2.667  0.3091 -0.1684 -0.0410
  929POSM   AM2 9778   4.502  15.807   2.814  0.0709  0.0489 -0.1212
  929POSM   T1A 9779   4.066  15.586   3.094  0.1226  0.0298 -0.2823
  929POSM   C2A 9780   3.979  15.392   3.498  0.1848  0.1796  0.3282
  929POSM   C3A 9781   3.978  15.392   3.959  0.1626 -0.0210  0.0556
  929POSM   C1B 9782   4.741  15.795   3.207 -0.1197  0.1196 -0.1687
  929POSM   D2B 9783   4.870  15.612   3.704  0.1435  0.1146  0.1373
  929POSM   C3B 9784   5.201  15.632   4.044  0.0539 -0.5186 -0.1793
  929POSM   C4B 9785   5.349  15.889   4.401  0.0088  0.3095 -0.1438
  930POPC   NC3 9786  11.730  15.090   2.602  0.0150 -0.0271 -0.2064
  930POPC   PO4 9787  12.159  14.980   2.689  0.0671  0.0983 -0.4066
  930POPC   GL1 9788  12.027  14.850   3.098  0.3568  0.1185  0.0347
  930POPC   GL2 9789  11.723  14.837   3.093 -0.2625 -0.2554  0.2092
  930POPC   C1A 9790  11.982  14.906   3.577 -0.1231 -0.0363 -0.0938
  930POPC   D2A 9791  12.131  14.768   3.933  0.1055  0.1062  0.0646
  930POPC   C3A 9792  11.888  14.579   4.296  0.1417  0.3627 -0.1861
  930POPC   C4A 9793  11.496  14.532   4.618 -0.0137 -0.0633  0.0471
  930POPC   C1B 9794  11.492  14.783   3.505  0.0290  0.2671  0.0691
  930POPC   C2B 9795  11.595  14.819   3.904  0.2222 -0.0716 -0.0173
  930POPC   C3B 9796  11.285  14.984   4.302 -0.2214 -0.1423 -0.0715
  930POPC   C4B 9797  11.231  14.989   4.743  0.0825 -0.1827 -0.2860
  931POPS   CNO 9798   0.258  11.550   2.214 -0.0194 -0.0202  0.0766
  931POPS   PO4 9799   0.659  11.774   2.234  0.0502 -0.0759  0.1985
  931POPS   GL1 9800   0.879  11.753   2.615  0.1493  0.3818  0.2332
  931POPS   GL2 9801   0.743  11.918   2.897 -0.2457  0.1111  0.1196
  931POPS   C1A 9802   1.113  11.505   2.980 -0.1153  0.0040  0.0637
  931POPS   D2A 9803   1.055  11.248   3.359 -0.1349 -0.3463 -0.1892
  931POPS   C3A 9804   0.988  11.221   3.824  0.3139  0.1137 -0.3029
  931POPS   C4A 9805   0.971  11.205   4.230  0.2334 -0.0235  0.0691
  931POPS   C1B 9806   0.937  11.799   3.340 -0.0523 -0.2235  0.1274
  931POPS   C2B 9807   0.841  11.734   3.770 -0.4835  0.0442  0.1230
  931POPS   C3B 9808   0.592  11.627   4.086 -0.0980  0.2265  0.3568
  931POPS   C4B 9809   0.459  11.857   4.462 -0.0143  0.0393 -0.0253
  932POPS   CNO 9810  11.220  15.150   2.602 -0.3659  0.0666  0.1685
  932POPS   PO4 9811  10.844  15.268   2.725 -0.0792 -0.1570 -0.0944
  932POPS   GL1 9812  11.096  15.321   3.031  0.1059 -0.2237 -0.3125
  932POPS   GL2 9813  11.298  15.133   3.184 -0.0586 -0.1775 -0.1951
  932POPS   C1A 9814  10.876  15.603   3.316  0.0581  0.2838  0.0953
  932POPS   D2A 9815  10.506  15.824   3.438  0.0260  0.0744  0.1254
  932POPS   C3A 9816  10.141  15.689   3.574 -0.2664 -0.2202  0.2177
  932POPS   C4A 9817  10.010  15.594   3.921  0.4010 -0.0250 -0.0524
  932POPS   C1B 9818  11.177  15.285   3.625 -0.0120 -0.0005 -0.2700
  932POPS   C2B 9819  10.927  15.633   3.862 -0.0406 -0.3365 -0.0630
  932POPS   C3B 9820  10.552  15.833   4.089 -0.1247  0.1598 -0.4981
  932POPS   C4B 9821  10.687  15.937   4.463 -0.0373 -0.0616  0.0394
  933CHOL   ROH 9822  14.452   1.560   2.898  0.0914 -0.0731 -0.0870
  933CHOL    R1 9823  14.369   1.523   3.166 -0.0730  0.1263 -0.1082
  933CHOL    R2 9824  14.538   1.430   3.364 -0.2768 -0.0533 -0.0014
  933CHOL    R3 9825  14.460   1.657   3.492 -0.0152  0.1048 -0.1170
  933CHOL    R4 9826  14.608   1.506   3.694 -0.2970 -0.0041 -0.0094
  933CHOL    R5 9827  14.406   1.585   3.714 -0.1911  0.2747 -0.1103
  933CHOL    C1 9828  14.575   1.762   4.006 -0.0633  0.1730 -0.1227
  933CHOL    C2 9829  14.722   1.916   4.314 -0.0999 -0.1943  0.2157
  934CHOL   ROH 9830  13.333  14.334   2.854  0.3131 -0.0292  0.1606
  934CHOL    R1 9831  13.328  14.258   3.126  0.0910 -0.0589  0.1510
  934CHOL    R2 9832  13.558  14.234   3.278 -0.0256 -0.1282  0.3230
  934CHOL    R3 9833  13.429  14.406   3.443 -0.1113 -0.1155  0.2434
  934CHOL    R4 9834  13.561  14.216   3.623 -0.1205 -0.0389  0.3285
  934CHOL    R5 9835  13.349  14.268   3.622 -0.1314 -0.0869  0.2557
  934CHOL    C1 9836  13.441  14.367   3.979 -0.2562  0.0250  0.2571
  934CHOL    C2 9837  13.306  14.377   4.357 -0.0367  0.2237 -0.3974
  935CHOL   ROH 9838   0.547  10.995   2.963  0.0877  0.0692 -0.0386
  935CHOL    R1 9839   0.557  10.852   3.208  0.2018 -0.0199 -0.0921
  935CHOL    R2 9840   0.786  10.833   3.360  0.2154  0.1433 -0.0684
  935CHOL    R3 9841   0.625  10.929   3.557  0.0922 -0.0822 -0.0598
  935CHOL    R4 9842   0.830  10.774   3.698  0.1520  0.0119 -0.0842
  935CHOL    R5 9843   0.614  10.751   3.717  0.1760 -0.1596 -0.1532
  935CHOL    C1 9844   0.704  10.830   4.079 -0.0005 -0.2763 -0.0853
  935CHOL    C2 9845   0.977  10.615   4.263  0.0852  0.1052 -0.1429
  936CHOL   ROH 9846   2.436  15.057   2.799 -0.0360  0.3588  0.0339
  936CHOL    R1 9847   2.420  15.078   3.081  0.0392  0.3411  0.0405
  936CHOL    R2 9848   2.568  14.918   3.250 -0.1178  0.1419 -0.0100
  936CHOL    R3 9849   2.648  15.156   3.353  0.1849  0.0374  0.0104
  936CHOL    R4 9850   2.593  14.989   3.588 -0.2506  0.1470 -0.0004
  936CHOL    R5 9851   2.510  15.186   3.547  0.0855  0.2790 -0.0910
  936CHOL    C1 9852   2.682  15.254   3.881 -0.0437  0.0518  0.0243
  936CHOL    C2 9853   2.704  15.153   4.318  0.4691  0.1371  0.0081
  937POPE   NH3 9854   1.283  13.652   2.303  0.1490 -0.2546  0.0573
  937POPE   PO4 9855   1.478  13.722   2.668 -0.0415 -0.1554 -0.1224
  937POPE   GL1 9856   1.402  13.924   3.036 -0.0735  0.1630 -0.2250
  937POPE   GL2 9857   1.530  14.165   3.027  0.3551 -0.0211  0.1667
  937POPE   C1A 9858   1.574  13.988   3.512  0.1438  0.1163  0.0237
  937POPE   D2A 9859   1.585  14.111   3.918 -0.2711 -0.2820 -0.0176
  937POPE   C3A 9860   1.946  13.980   4.137  0.3048  0.0148  0.2944
  937POPE   C4A 9861   2.260  14.137   4.395 -0.0365 -0.4482  0.1917
  937POPE   C1B 9862   1.850  14.328   3.268 -0.2600  0.3119  0.0205
  937POPE   C2B 9863   1.962  14.388   3.679  0.1190  0.0083  0.0503
  937POPE   C3B 9864   2.050  14.512   3.969  0.2842  0.0969 -0.0364
  937POPE   C4B 9865   1.995  14.517   4.425 -0.2051 -0.0368  0.2918
  938CHOL   ROH 9866   1.242  12.795   3.093  0.0084  0.2642  0.1019
  938CHOL    R1 9867   1.210  12.625   3.317 -0.1082  0.1350 -0.0108
  938CHOL    R2 9868   1.365  12.648   3.545 -0.0918 -0.1187  0.0071
  938CHOL    R3 9869   1.123  12.665   3.669 -0.0859 -0.0375  0.0164
  938CHOL    R4 9870   1.317  12.640   3.887 -0.0724 -0.0100  0.0126
  938CHOL    R5 9871   1.141  12.515   3.855 -0.1013  0.0103  0.0591
  938CHOL    C1 9872   1.062  12.650   4.202 -0.0555  0.1296  0.0246
  938CHOL    C2 9873   1.094  12.356   4.440 -0.1138 -0.3310  0.2453
  939CHOL   ROH 9874   3.022   1.068   3.284 -0.0621 -0.2147  0.3044
  939CHOL    R1 9875   3.127   1.256   3.467 -0.0068 -0.1342  0.1929
  939CHOL    R2 9876   2.978   1.363   3.673  0.0360 -0.0045  0.1682
  939CHOL    R3 9877   3.184   1.274   3.826  0.0475  0.0368  0.1745
  939CHOL    R4 9878   3.025   1.443   4.006  0.0295  0.0047  0.1659
  939CHOL    R5 9879   3.239   1.460   3.966  0.0184  0.0397  0.1709
  939CHOL    C1 9880   3.245   1.406   4.344  0.0365  0.0487  0.1705
  939CHOL    C2 9881   2.911   1.608   4.441  0.2731  0.2296 -0.0888
  940CHOL   ROH 9882   0.675   2.704   2.985  0.3717 -0.2924 -0.1295
  940CHOL    R1 9883   0.795   2.568   3.202  0.0893 -0.2436  0.0609
  940CHOL    R2 9884   0.907   2.700   3.418  0.0201 -0.1865  0.0571
  940CHOL    R3 9885   0.739   2.540   3.560 -0.2179  0.0420  0.0423
  940CHOL    R4 9886   0.856   2.720   3.759  0.2188 -0.2630  0.0931
  940CHOL    R5 9887   0.853   2.502   3.767 -0.1804 -0.2780 -0.0240
  940CHOL    C1 9888   0.669   2.582   4.091  0.1110 -0.0931  0.1002
  940CHOL    C2 9889   0.582   2.321   4.434 -0.0953  0.3381  0.1374
  941POPE   NH3 9890   0.648   1.870   2.672 -0.2115  0.2691 -0.1623
  941POPE   PO4 9891   1.053   1.784   2.582 -0.1245 -0.3245 -0.1283
  941POPE   GL1 9892   1.029   2.026   2.963 -0.0034  0.0380  0.0594
  941POPE   GL2 9893   1.226   2.234   3.125  0.0028  0.0766 -0.2933
  941POPE   C1A 9894   0.832   2.085   3.413  0.3174 -0.3033  0.1703
  941POPE   D2A 9895   0.907   2.052   3.873 -0.0400 -0.0136  0.0086
  941POPE   C3A 9896   1.023   2.313   4.217  0.0212  0.3900  0.3841
  941POPE   C4A 9897   1.055   2.567   4.600 -0.0962  0.0274  0.3768
  941POPE   C1B 9898   1.285   2.053   3.536 -0.2870  0.1792  0.0822
  941POPE   C2B 9899   1.451   2.143   4.040 -0.0082 -0.4182 -0.0880
  941POPE   C3B 9900   1.474   2.428   4.357 -0.0262 -0.3491 -0.1597
  941POPE   C4B 9901   1.616   2.530   4.721  0.0899 -0.0946 -0.2721
  942POPS   CNO 9902   2.530   0.533   2.626 -0.0022  0.2298 -0.3931
  942POPS   PO4 9903   2.883   0.414   2.642 -0.0402 -0.2603 -0.0195
  942POPS   GL1 9904   3.228   0.358   2.968  0.0665  0.2232 -0.0341
  942POPS   GL2 9905   3.598   0.515   3.083 -0.1063  0.0024  0.0714
  942POPS   C1A 9906   3.309   0.483   3.488  0.1759  0.2982 -0.1761
  942POPS   D2A 9907   3.404   0.773   3.843 -0.1314  0.2708  0.0292
  942POPS   C3A 9908   3.637   0.614   4.163 -0.1688 -0.0735 -0.1976
  942POPS   C4A 9909   3.930   0.627   4.523 -0.1062  0.1893 -0.0367
  942POPS   C1B 9910   3.887   0.469   3.495  0.1411  0.3067 -0.0449
  942POPS   C2B 9911   4.029   0.392   3.906  0.2313 -0.0489  0.1400
  942POPS   C3B 9912   4.084   0.173   4.361  0.0397  0.1797  0.2852
  942POPS   C4B 9913   3.946  -0.249   4.465  0.0262 -0.0517  0.0441
  943POSM   NC3 9914  13.218   0.253   2.540 -0.0576 -0.0080 -0.0708
  943POSM   PO4 9915  13.204   0.635   2.515  0.0771 -0.1051 -0.2731
  943POSM   AM1 9916  13.198   0.750   2.948 -0.2427 -0.0579 -0.1177
  943POSM   AM2 9917  13.042   0.463   2.982  0.1996  0.1399 -0.0887
  943POSM   T1A 9918  13.080   0.797   3.442  0.2606  0.1036 -0.0720
  943POSM   C2A 9919  13.147   0.800   3.885  0.1002  0.1023  0.2209
  943POSM   C3A 9920  13.235   0.634   4.321 -0.2336 -0.0809 -0.1433
  943POSM   C1B 9921  13.164   0.304   3.366  0.3674  0.0866  0.1614
  943POSM   D2B 9922  13.197   0.319   3.781 -0.2823 -0.0332  0.3311
  943POSM   C3B 9923  13.334   0.138   4.102  0.1222  0.1107 -0.2094
  943POSM   C4B 9924  13.402   0.184   4.555  0.0897  0.0018 -0.1556
  944POSM   NC3 9925  15.418  13.351   2.147  0.0616  0.1509  0.1371
  944POSM   PO4 9926  15.319  12.896   2.326 -0.3255  0.2183 -0.4454
  944POSM   AM1 9927  15.487  13.003   2.708  0.0170 -0.0536  0.0631
  944POSM   AM2 9928  15.756  12.816   2.641 -0.1420 -0.0896 -0.0966
  944POSM   T1A 9929  15.437  13.188   3.127 -0.1294 -0.2571 -0.0599
  944POSM   C2A 9930  15.650  13.076   3.495 -0.1827  0.3193  0.0198
  944POSM   C3A 9931  15.589  12.973   4.018 -0.0613  0.0119  0.1525
  944POSM   C1B 9932  15.690  12.697   3.078 -0.1752  0.0962 -0.1369
  944POSM   D2B 9933  15.799  12.488   3.406 -0.0702 -0.0022  0.1721
  944POSM   C3B 9934  15.745  12.532   3.756 -0.2171  0.1380  0.0308
  944POSM   C4B 9935  15.832  12.401   4.166 -0.3544 -0.2597 -0.4709
  945POSM   NC3 9936   0.180   3.114   2.463  0.1029  0.0621  0.1515
  945POSM   PO4 9937  -0.270   2.928   2.453 -0.2214 -0.2417  0.2676
  945POSM   AM1 9938  -0.192   2.905   2.863  0.0900  0.1350 -0.3549
  945POSM   AM2 9939  -0.274   3.296   2.879  0.1511 -0.4444  0.3022
  945POSM   T1A 9940  -0.213   2.809   3.300  0.0701  0.2215 -0.0490
  945POSM   C2A 9941  -0.152   2.978   3.743  0.1927 -0.2390 -0.0216
  945POSM   C3A 9942  -0.141   3.338   4.052  0.2344 -0.0120 -0.0424
  945POSM   C1B 9943   0.033   3.260   3.295 -0.0432 -0.2108 -0.3167
  945POSM   D2B 9944   0.240   3.288   3.565  0.0639 -0.0907 -0.2810
  945POSM   C3B 9945   0.333   3.351   4.004  0.1450  0.3244  0.1239
  945POSM   C4B 9946   0.326   3.565   4.431 -0.2379 -0.0289  0.0761
  946CHOL   ROH 9947  12.981  14.627   2.983 -0.0226  0.0709 -0.0301
  946CHOL    R1 9948  13.067  14.596   3.251  0.0089 -0.0121 -0.0493
  946CHOL    R2 9949  13.050  14.800   3.437  0.1276 -0.0350 -0.0104
  946CHOL    R3 9950  12.914  14.613   3.581  0.0698 -0.0023 -0.0222
  946CHOL    R4 9951  13.028  14.792   3.782  0.0334  0.0061 -0.0149
  946CHOL    R5 9952  13.050  14.576   3.774  0.0119  0.0051  0.0181
  946CHOL    C1 9953  12.889  14.612   4.118 -0.0757  0.0606 -0.0287
  946CHOL    C2 9954  12.967  14.772   4.328 -0.0273  0.0517 -0.1891
  947POSM   NC3 9955   1.668   1.080   2.676 -0.0923  0.1155 -0.0032
  947POSM   PO4 9956   1.915   1.450   2.588  0.3809 -0.0206 -0.0463
  947POSM   AM1 9957   1.878   1.381   3.012 -0.0910  0.0973  0.3368
  947POSM   AM2 9958   1.902   1.056   3.119 -0.0749  0.0910  0.1751
  947POSM   T1A 9959   2.169   1.564   3.294  0.1112  0.1191 -0.2915
  947POSM   C2A 9960   2.311   1.792   3.720  0.0677  0.1118  0.4645
  947POSM   C3A 9961   2.298   2.217   3.974  0.1006  0.0185  0.1757
  947POSM   C1B 9962   2.073   1.153   3.572 -0.3311  0.3345  0.0710
  947POSM   D2B 9963   2.057   1.353   3.945  0.0426  0.2660 -0.0394
  947POSM   C3B 9964   2.069   0.981   4.217 -0.0358  0.0859  0.0416
  947POSM   C4B 9965   2.142   0.615   4.396 -0.0766  0.1469  0.0710
  948POPE   NH3 9966  11.301   0.167   2.673  0.1765 -0.0250 -0.1936
  948POPE   PO4 9967  11.752   0.186   2.530 -0.0900  0.0219 -0.1416
  948POPE   GL1 9968  11.736   0.375   2.892  0.0248 -0.1334  0.2689
  948POPE   GL2 9969  11.380   0.325   3.133 -0.1777  0.0591  0.1822
  948POPE   C1A 9970  11.832   0.342   3.331 -0.1247 -0.1314 -0.0751
  948POPE   D2A 9971  11.798   0.460   3.709 -0.2088 -0.0424 -0.0652
  948POPE   C3A 9972  11.927   0.255   4.093 -0.0429  0.2628 -0.2004
  948POPE   C4A 9973  11.901   0.308   4.561  0.1975  0.1749 -0.0950
  948POPE   C1B 9974  11.347   0.271   3.579 -0.0684  0.0406 -0.0032
  948POPE   C2B 9975  11.379   0.143   4.044  0.2068 -0.0805  0.1670
  948POPE   C3B 9976  11.387   0.028   4.527 -0.2252  0.0132  0.2353
  948POPE   C4B 9977  10.918  -0.111   4.810 -0.1917  0.2345 -0.0432
  949POPS   CNO 9978  13.778   1.598   1.862 -0.0344  0.3516 -0.3312
  949POPS   PO4 9979  13.909   1.803   2.200  0.6071  0.3364 -0.3730
  949POPS   GL1 9980  14.032   1.647   2.531  0.1664 -0.0804 -0.3195
  949POPS   GL2 9981  13.922   1.514   2.691  0.0768  0.1076  0.6006
  949POPS   C1A 9982  14.142   1.903   2.965 -0.2202  0.0464  0.3582
  949POPS   D2A 9983  14.107   1.986   3.309  0.1388 -0.0967  0.0341
  949POPS   C3A 9984  14.160   2.004   3.666  0.1597 -0.1808 -0.1850
  949POPS   C4A 9985  13.987   1.688   4.053 -0.2504 -0.0205 -0.1181
  949POPS   C1B 9986  13.876   1.553   3.134  0.1211  0.2894  0.4916
  949POPS   C2B 9987  13.764   1.572   3.517 -0.2339 -0.0277 -0.0790
  949POPS   C3B 9988  13.509   1.737   3.856  0.1606 -0.0287 -0.0378
  949POPS   C4B 9989  13.391   1.867   4.289  0.0366 -0.1149 -0.0151
  950CHOL   ROH 9990  15.218   3.727   3.194  0.0113  0.0571 -0.0184
  950CHOL    R1 9991  15.170   3.751   3.472 -0.0668  0.1203 -0.0361
  950CHOL    R2 9992  15.365   3.700   3.662 -0.1781 -0.0497  0.0398
  950CHOL    R3 9993  15.301   3.950   3.747  0.0232  0.0179 -0.0057
  950CHOL    R4 9994  15.430   3.823   3.978 -0.2111 -0.0883  0.0612
  950CHOL    R5 9995  15.234   3.920   3.975 -0.1144  0.0998 -0.0371
  950CHOL    C1 9996  15.408   4.130   4.242 -0.0414 -0.0473  0.0311
  950CHOL    C2 9997  15.743   4.260   4.261 -0.0387  0.1480 -0.1119
  951CHOL   ROH 9998   0.567  13.578   3.070 -0.0675 -0.1928 -0.0150
  951CHOL    R1 9999   0.537  13.433   3.311 -0.0810 -0.0755  0.0537
  951CHOL    R210000   0.713  13.458   3.523 -0.0734 -0.0008  0.0339
  951CHOL    R310001   0.487  13.512   3.663 -0.0608  0.0940  0.0203
  951CHOL    R410002   0.675  13.412   3.863 -0.0769  0.1063  0.0491
  951CHOL    R510003   0.474  13.338   3.826 -0.0981  0.1410  0.0719
  951CHOL    C110004   0.440  13.436   4.193 -0.0671  0.2575  0.0452
  951CHOL    C210005   0.232  13.386   4.591  0.0369  0.5053  0.0236
  952CHOL   ROH10006   2.249   0.654   3.081 -0.0189 -0.1050  0.0289
  952CHOL    R110007   2.237   0.780   3.334 -0.0482 -0.0289 -0.0116
  952CHOL    R210008   2.184   0.641   3.567 -0.1388  0.0551  0.0092
  952CHOL    R310009   2.416   0.756   3.650 -0.1323  0.0217  0.0429
  952CHOL    R410010   2.301   0.635   3.892 -0.1157 -0.1118  0.0003
  952CHOL    R510011   2.364   0.843   3.867 -0.1229 -0.0890  0.0970
  952CHOL    C110012   2.587   0.740   4.160 -0.0960 -0.2404  0.0268
  952CHOL    C210013   2.867   0.594   4.414  0.0505  0.0639  0.4232
  953POPE   NH310014   2.163   1.039   2.715  0.1112 -0.1560  0.3463
  953POPE   PO410015   2.016   0.596   2.647 -0.0121  0.0322  0.2112
  953POPE   GL110016   2.149   0.236   2.756  0.1515  0.4780 -0.0991
  953POPE   GL210017   2.457   0.069   2.801  0.0357  0.0450 -0.2854
  953POPE   C1A10018   2.121  -0.026   3.139  0.5363 -0.0095 -0.0122
  953POPE   D2A10019   2.034  -0.448   3.378 -0.0819  0.0701  0.3424
  953POPE   C3A10020   1.932  -0.422   3.810 -0.2401  0.0126 -0.0331
  953POPE   C4A10021   1.865  -0.352   4.107 -0.1315 -0.2186 -0.2346
  953POPE   C1B10022   2.530   0.278   3.236  0.2240 -0.0220  0.1271
  953POPE   C2B10023   2.547   0.258   3.684 -0.3209 -0.0645 -0.0660
  953POPE   C3B10024   2.776   0.261   4.042  0.1190 -0.2105  0.0348
  953POPE   C4B10025   3.206   0.369   4.086  0.1263  0.0813  0.0926
  954CHOL   ROH10026  12.483  15.127   3.080  0.3178 -0.0148  0.0405
  954CHOL    R110027  12.596  15.050   3.328  0.1812 -0.0148  0.1027
  954CHOL    R210028  12.624  15.227   3.540  0.1398  0.0065  0.0902
  954CHOL    R310029  12.485  15.036   3.675  0.0190  0.0687  0.0558
  954CHOL    R410030  12.651  15.165   3.879 -0.0599  0.0693  0.1189
  954CHOL    R510031  12.640  14.952   3.836 -0.0894  0.0626  0.1578
  954CHOL    C110032  12.536  14.950   4.203 -0.2895  0.1642  0.1032
  954CHOL    C210033  12.631  15.150   4.535  0.1856  0.1815  0.1326
  955CHOL   ROH10034  14.696   2.631   3.058 -0.3484 -0.1823  0.2007
  955CHOL    R110035  14.626   2.648   3.332 -0.0580 -0.0497  0.2710
  955CHOL    R210036  14.816   2.663   3.532  0.1629  0.1023  0.0700
  955CHOL    R310037  14.678   2.886   3.603  0.1882  0.1112  0.0843
  955CHOL    R410038  14.810   2.800   3.849  0.2191  0.1341  0.0560
  955CHOL    R510039  14.598   2.839   3.823  0.2265  0.1408  0.0961
  955CHOL    C110040  14.677   3.089   4.100  0.2755  0.1611  0.0613
  955CHOL    C210041  14.911   3.246   4.395  0.2771 -0.0276 -0.1717
  956CHOL   ROH10042   3.073  15.015   2.620  0.3020  0.0360 -0.1120
  956CHOL    R110043   3.107  14.866   2.859 -0.0107 -0.0753 -0.1332
  956CHOL    R210044   3.273  14.949   3.064  0.0849 -0.3972 -0.0712
  956CHOL    R310045   3.048  14.919   3.214 -0.0106 -0.0442 -0.1353
  956CHOL    R410046   3.262  14.959   3.409  0.0255 -0.4720 -0.0717
  956CHOL    R510047   3.120  14.794   3.405 -0.2687 -0.2276 -0.1524
  956CHOL    C110048   3.044  14.935   3.751 -0.0987 -0.1843 -0.1322
  956CHOL    C210049   2.841  14.809   4.015  0.2015 -0.0234 -0.0388
  957POPC   NC310050  14.350  12.949   2.431 -0.2115  0.1863  0.0460
  957POPC   PO410051  14.427  12.441   2.527 -0.0536  0.0556  0.3060
  957POPC   GL110052  14.578  12.607   2.912  0.0678  0.1687 -0.1329
  957POPC   GL210053  14.578  12.979   2.901  0.1997  0.1865  0.0323
  957POPC   C1A10054  14.818  12.422   3.198 -0.2513 -0.0315 -0.0004
  957POPC   D2A10055  14.731  12.488   3.562 -0.0266 -0.1184  0.0385
  957POPC   C3A10056  14.849  12.432   3.875  0.3693  0.1549 -0.1728
  957POPC   C4A10057  14.846  12.396   4.279 -0.4567  0.0358 -0.0217
  957POPC   C1B10058  14.486  12.885   3.288  0.2988 -0.0758 -0.1978
  957POPC   C2B10059  14.554  12.896   3.757  0.1411  0.2164 -0.1789
  957POPC   C3B10060  14.540  12.856   4.187  0.0743 -0.1819  0.1863
  957POPC   C4B10061  14.253  12.912   4.580  0.0104 -0.2836 -0.2442
  958CHOL   ROH10062  15.097  13.400   2.752 -0.2207 -0.1403 -0.2437
  958CHOL    R110063  14.977  13.436   3.006 -0.1488 -0.1393 -0.2096
  958CHOL    R210064  14.857  13.230   3.146 -0.0430 -0.1525 -0.1433
  958CHOL    R310065  15.027  13.307   3.343 -0.0044 -0.0776 -0.2050
  958CHOL    R410066  14.787  13.216   3.484  0.0107 -0.0336 -0.1271
  958CHOL    R510067  14.886  13.409   3.507  0.0166 -0.0176 -0.2167
  958CHOL    C110068  14.906  13.281   3.866  0.0783  0.1060 -0.1757
  958CHOL    C210069  14.809  13.429   4.263 -0.1098  0.1891 -0.0817
  959CHOL   ROH10070   1.115  14.417   3.088 -0.2289  0.0710 -0.0168
  959CHOL    R110071   0.993  14.317   3.323 -0.2779  0.1217 -0.0196
  959CHOL    R210072   1.123  14.145   3.496 -0.4129 -0.0662 -0.1032
  959CHOL    R310073   1.058  14.333   3.681 -0.1778 -0.0546 -0.0291
  959CHOL    R410074   1.107  14.090   3.837 -0.2846 -0.1289 -0.1068
  959CHOL    R510075   0.928  14.215   3.844 -0.1885  0.0073  0.0094
  959CHOL    C110076   1.037  14.235   4.209  0.0108 -0.1544 -0.0394
  959CHOL    C210077   1.026  14.153   4.606 -0.0397 -0.1079  0.2565
  960POPE   NH310078  14.943   2.536   2.637  0.1872 -0.1613  0.1423
  960POPE   PO410079  15.058   2.139   2.590 -0.1284 -0.2353  0.0242
  960POPE   GL110080  14.944   2.143   2.981 -0.1543 -0.1501  0.1067
  960POPE   GL210081  14.638   2.022   2.918  0.3626  0.3973 -0.0864
  960POPE   C1A10082  15.059   2.331   3.290  0.0597  0.0243 -0.3570
  960POPE   D2A10083  15.376   2.333   3.592  0.0306  0.2736  0.0579
  960POPE   C3A10084  15.230   2.547   3.967 -0.0495  0.2304 -0.0624
  960POPE   C4A10085  15.146   2.838   4.168  0.1961 -0.1540  0.1048
  960POPE   C1B10086  14.587   2.158   3.383 -0.2427  0.2184  0.0559
  960POPE   C2B10087  14.557   2.312   3.770  0.2263  0.0579  0.1965
  960POPE   C3B10088  14.739   2.414   4.104 -0.0821 -0.1694  0.0512
  960POPE   C4B10089  15.078   2.262   4.440  0.2761 -0.0322 -0.0403
  961CHOL   ROH10090  13.558   0.447   2.883 -0.2341  0.1054 -0.0513
  961CHOL    R110091  13.653   0.440   3.149 -0.0674  0.1335 -0.1108
  961CHOL    R210092  13.710   0.669   3.293 -0.3591  0.1558 -0.0447
  961CHOL    R310093  13.540   0.559   3.474 -0.0734 -0.2057  0.0183
  961CHOL    R410094  13.727   0.718   3.635 -0.3821  0.2926 -0.0611
  961CHOL    R510095  13.679   0.507   3.662  0.1119  0.1640  0.0025
  961CHOL    C110096  13.577   0.642   4.003 -0.1274  0.0330 -0.0115
  961CHOL    C210097  13.743   0.779   4.211  0.1528  0.0807  0.3572
  962POPC   NC310098   1.211  11.934   2.274 -0.0768  0.2137 -0.2073
  962POPC   PO410099   1.088  12.318   2.597  0.0553 -0.2853 -0.0504
  962POPC   GL110100   0.961  12.424   2.941 -0.0877  0.0508 -0.1753
  962POPC   GL210101   0.745  12.708   2.889  0.0845 -0.0507 -0.4434
  962POPC   C1A10102   0.777  12.373   3.283  0.1584 -0.1325  0.2291
  962POPC   D2A10103   0.719  12.358   3.697 -0.0072  0.1104 -0.2374
  962POPC   C3A10104   0.763  12.072   4.132 -0.0521  0.0178 -0.2247
  962POPC   C4A10105   0.951  11.758   4.360 -0.0515 -0.1230 -0.2444
  962POPC   C1B10106   0.660  12.881   3.279  0.0071 -0.2441 -0.0902
  962POPC   C2B10107   0.674  12.980   3.570  0.0085  0.0349 -0.0042
  962POPC   C3B10108   0.667  12.787   3.931  0.1415  0.1797  0.0188
  962POPC   C4B10109   0.489  12.912   4.355  0.2528  0.0416  0.4041
  963POPE   NH310110  12.738  14.923   2.621 -0.1217  0.1033  0.3236
  963POPE   PO410111  12.450  15.382   2.532 -0.1648 -0.0442  0.1139
  963POPE   GL110112  12.105  15.419   2.922 -0.2249 -0.0719 -0.1885
  963POPE   GL210113  11.741  15.355   3.012 -0.1848 -0.1211 -0.2231
  963POPE   C1A10114  12.149  15.409   3.348 -0.1554 -0.0386 -0.1606
  963POPE   D2A10115  12.174  15.356   3.824  0.0916  0.1419  0.0333
  963POPE   C3A10116  12.359  15.395   4.201  0.1006 -0.2307  0.1201
  963POPE   C4A10117  12.344  15.671   4.517 -0.1776  0.0489 -0.2539
  963POPE   C1B10118  11.678  15.315   3.434  0.1171 -0.1168 -0.5780
  963POPE   C2B10119  11.685  15.309   3.859  0.0227  0.1078  0.1596
  963POPE   C3B10120  11.748  15.233   4.318 -0.0550 -0.1759  0.1641
  963POPE   C4B10121  12.085  15.040   4.423  0.1532 -0.2840  0.1204
  964CHOL   ROH10122  14.279  13.999   2.752 -0.0408 -0.1706 -0.0223
  964CHOL    R110123  14.158  14.035   3.005 -0.0350 -0.0436 -0.0361
  964CHOL    R210124  13.918  13.916   3.073 -0.0359 -0.0099  0.0298
  964CHOL    R310125  14.061  13.822   3.284 -0.0290  0.0945  0.0717
  964CHOL    R410126  13.786  13.840   3.384 -0.0576 -0.0460  0.0113
  964CHOL    R510127  13.963  13.928   3.475 -0.1268  0.0621  0.0381
  964CHOL    C110128  13.844  13.707   3.762 -0.0637  0.0310  0.0399
  964CHOL    C210129  13.867  13.671   4.235 -0.0149 -0.2226  0.0865
  965CHOL   ROH10130   2.840   0.619   3.086  0.3272 -0.0713  0.1293
  965CHOL    R110131   2.782   0.735   3.338  0.2411  0.1634  0.0075
  965CHOL    R210132   2.831   0.604   3.576 -0.3294  0.1568  0.1390
  965CHOL    R310133   2.971   0.830   3.635  0.0720 -0.0974  0.1997
  965CHOL    R410134   2.886   0.725   3.895 -0.4943  0.2112  0.1474
  965CHOL    R510135   2.852   0.927   3.819  0.0266  0.2499 -0.0060
  965CHOL    C110136   3.049   1.007   4.136 -0.2135  0.0042  0.2092
  965CHOL    C210137   3.314   0.930   4.374  0.1034 -0.1539 -0.0144
  966POSM   NC310138  13.239  14.499   2.179  0.3168  0.2969 -0.0241
  966POSM   PO410139  13.201  14.738   2.561  0.0470 -0.1541  0.2577
  966POSM   AM110140  13.427  14.893   2.916 -0.1486 -0.1142  0.0043
  966POSM   AM210141  13.689  14.908   2.771  0.0259  0.2075 -0.1655
  966POSM   T1A10142  13.540  14.882   3.292  0.0575  0.3354  0.0719
  966POSM   C2A10143  13.570  14.771   3.701 -0.0384 -0.3453  0.0009
  966POSM   C3A10144  13.394  14.853   4.130  0.0436  0.1746  0.3587
  966POSM   C1B10145  13.797  14.558   2.935 -0.0587  0.1655  0.1761
  966POSM   D2B10146  13.987  14.580   3.362  0.2292 -0.0960  0.0612
  966POSM   C3B10147  14.038  14.365   3.699  0.1772  0.0542 -0.3373
  966POSM   C4B10148  13.901  14.117   4.002 -0.1315  0.3036 -0.0780
  967POSM   NC310149  14.529   1.708   2.343  0.0336 -0.0689  0.1433
  967POSM   PO410150  14.870   1.624   2.565 -0.0668  0.0089 -0.0031
  967POSM   AM110151  14.920   1.465   2.962 -0.0507  0.1919  0.0509
  967POSM   AM210152  14.964   1.198   3.020  0.3111  0.4506  0.2256
  967POSM   T1A10153  14.927   1.748   3.264  0.2465 -0.0784  0.0714
  967POSM   C2A10154  14.977   1.935   3.618  0.1368  0.0270 -0.2785
  967POSM   C3A10155  15.147   1.979   4.051 -0.3368 -0.2932 -0.1861
  967POSM   C1B10156  15.013   1.251   3.419  0.1052 -0.3634 -0.0772
  967POSM   D2B10157  15.121   1.460   3.695  0.1258  0.3161  0.0890
  967POSM   C3B10158  15.036   1.514   4.038  0.1339  0.0584  0.1164
  967POSM   C4B10159  14.883   1.303   4.379 -0.0651  0.2448  0.0645
  968CHOL   ROH10160   2.918  15.393   2.910 -0.0949  0.0535  0.0336
  968CHOL    R110161   3.063  15.398   3.153 -0.0382 -0.0175  0.0009
  968CHOL    R210162   2.993  15.559   3.366  0.0652 -0.0124  0.0307
  968CHOL    R310163   2.996  15.325   3.503  0.0166 -0.0254  0.0101
  968CHOL    R410164   3.072  15.527   3.701  0.1130 -0.0643  0.0149
  968CHOL    R510165   3.182  15.345   3.653  0.0494 -0.0946 -0.0198
  968CHOL    C110166   3.120  15.288   4.025  0.0953 -0.1066 -0.0136
  968CHOL    C210167   3.254  15.065   4.246  0.1788  0.0901  0.0224
  969POPS   CNO10168   0.269   1.312   2.235  0.2252 -0.1704  0.0867
  969POPS   PO410169   0.261   1.544   2.613  0.1209  0.0213  0.1563
  969POPS   GL110170   0.539   1.559   3.093  0.0847 -0.1357  0.3855
  969POPS   GL210171   0.900   1.571   3.040 -0.1589  0.2475 -0.0668
  969POPS   C1A10172   0.491   1.783   3.433  0.0213  0.1849 -0.0851
  969POPS   D2A10173   0.565   1.669   3.828  0.1941  0.3174 -0.0595
  969POPS   C3A10174   0.526   1.866   4.171  0.0490 -0.1187  0.0391
  969POPS   C4A10175   0.425   1.830   4.649 -0.0153  0.4353 -0.2323
  969POPS   C1B10176   0.992   1.639   3.496  0.1797  0.1449  0.1115
  969POPS   C2B10177   1.237   1.698   3.901  0.1576 -0.0627  0.4133
  969POPS   C3B10178   1.177   1.717   4.211 -0.2648 -0.2627 -0.2584
  969POPS   C4B10179   1.429   1.852   4.563  0.5333 -0.1429  0.1251
  970CHOL   ROH10180   0.313   2.992   2.941 -0.0488  0.3180  0.0915
  970CHOL    R110181   0.288   2.808   3.154 -0.1924  0.2512  0.0166
  970CHOL    R210182   0.461   2.807   3.371 -0.2019  0.0378  0.0161
  970CHOL    R310183   0.230   2.825   3.513 -0.1910  0.1480  0.0247
  970CHOL    R410184   0.442   2.819   3.716 -0.1755 -0.0728  0.0232
  970CHOL    R510185   0.268   2.688   3.706 -0.2747  0.0454 -0.0226
  970CHOL    C110186   0.214   2.844   4.050 -0.1498 -0.0338  0.0355
  970CHOL    C210187   0.121   2.663   4.299  0.1948 -0.2988  0.1503
  971CHOL   ROH10188   1.822   1.892   2.928  0.0930  0.1556  0.2359
  971CHOL    R110189   1.721   1.917   3.191  0.0885  0.1474  0.2365
  971CHOL    R210190   1.726   1.710   3.373 -0.1439  0.0606  0.1494
  971CHOL    R310191   1.854   1.893   3.529  0.0283 -0.1335  0.2408
  971CHOL    R410192   1.757   1.690   3.717 -0.0917 -0.1756  0.1329
  971CHOL    R510193   1.721   1.905   3.728  0.0755 -0.1536  0.2745
  971CHOL    C110194   1.894   1.851   4.063  0.1002 -0.4954  0.2091
  971CHOL    C210195   1.811   1.684   4.339 -0.0121  0.0724  0.1183
  972CHOL   ROH10196   1.596  14.676   2.980  0.0856 -0.0871 -0.0356
  972CHOL    R110197   1.515  14.756   3.239  0.1445  0.1977 -0.1016
  972CHOL    R210198   1.409  14.578   3.423 -0.1489  0.4647 -0.0084
  972CHOL    R310199   1.607  14.675   3.582 -0.0413  0.2831 -0.0281
  972CHOL    R410200   1.407  14.571   3.769 -0.1571  0.5173 -0.0070
  972CHOL    R510201   1.493  14.772   3.768  0.0557  0.4340 -0.0405
  972CHOL    C110202   1.591  14.659   4.119 -0.0608  0.3774 -0.0247
  972CHOL    C210203   1.477  14.367   4.387 -0.1266 -0.0654 -0.1388
  973POPE   NH310204  13.347  15.229   2.552  0.2251 -0.0716  0.2026
  973POPE   PO410205  12.964  15.329   2.367  0.3160 -0.4671 -0.3310
  973POPE   GL110206  12.864  15.363   2.832 -0.3131 -0.0864  0.0739
  973POPE   GL210207  12.967  15.129   3.037  0.0092 -0.3631  0.1397
  973POPE   C1A10208  12.648  15.570   3.188  0.2559  0.1930 -0.0927
  973POPE   D2A10209  12.747  15.854   3.594 -0.2304  0.2335 -0.2567
  973POPE   C3A10210  12.760  15.646   4.049 -0.2936 -0.0175  0.3127
  973POPE   C4A10211  12.905  15.640   4.448 -0.1367  0.0718  0.0553
  973POPE   C1B10212  13.119  15.270   3.323 -0.0310  0.3109  0.2421
  973POPE   C2B10213  13.167  15.258   3.705  0.1152  0.2206 -0.3579
  973POPE   C3B10214  13.026  15.218   4.162  0.3166 -0.2269 -0.0109
  973POPE   C4B10215  13.125  15.149   4.624 -0.5104 -0.0982 -0.0238
  974CHOL   ROH10216  15.067  12.910   2.986 -0.1220 -0.0578  0.1364
  974CHOL    R110217  15.048  12.840   3.259  0.0589 -0.0702  0.1474
  974CHOL    R210218  15.266  12.757   3.407  0.1739 -0.0019  0.0218
  974CHOL    R310219  15.190  12.959   3.573  0.2022 -0.0293  0.0678
  974CHOL    R410220  15.219  12.726   3.748  0.1131 -0.0840  0.0058
  974CHOL    R510221  15.043  12.854   3.731  0.1510 -0.0337  0.0159
  974CHOL    C110222  15.119  12.897   4.102  0.1043 -0.1576  0.0398
  974CHOL    C210223  15.314  13.103   4.416  0.1101  0.1631 -0.3052
  975CHOL   ROH10224  13.422  15.437   3.018 -0.2173 -0.0432  0.1193
  975CHOL    R110225  13.616  15.403   3.220 -0.0895 -0.1629 -0.0215
  975CHOL    R210226  13.612  15.547   3.456  0.2301 -0.0846 -0.0637
  975CHOL    R310227  13.619  15.300   3.569  0.0871 -0.0559  0.0107
  975CHOL    R410228  13.683  15.485   3.788  0.0954 -0.0112 -0.0204
  975CHOL    R510229  13.800  15.312   3.726  0.0447 -0.0833  0.0673
  975CHOL    C110230  13.730  15.217   4.089 -0.1173  0.0585  0.0748
  975CHOL    C210231  13.833  15.286   4.546  0.1992  0.2285 -0.2387
  976POPE   NH310232   0.980   0.572   2.393 -0.1204 -0.0059 -0.0582
  976POPE   PO410233   1.375   0.564   2.620  0.0103 -0.3902 -0.2270
  976POPE   GL110234   1.529   0.759   3.056 -0.1297  0.3197 -0.0616
  976POPE   GL210235   1.300   0.847   3.134 -0.0826 -0.0135 -0.0911
  976POPE   C1A10236   1.737   0.800   3.470  0.3636  0.0259  0.1405
  976POPE   D2A10237   1.796   0.801   3.849 -0.2156 -0.1632  0.2019
  976POPE   C3A10238   1.744   0.477   4.115  0.0063  0.1391 -0.0832
  976POPE   C4A10239   1.962   0.122   4.350 -0.2289 -0.0225  0.0837
  976POPE   C1B10240   1.168   0.843   3.494  0.0187 -0.1671 -0.0174
  976POPE   C2B10241   1.246   0.836   3.981  0.4082  0.0024  0.0885
  976POPE   C3B10242   1.426   0.766   4.337  0.1587  0.0129  0.0189
  976POPE   C4B10243   1.743   0.560   4.643 -0.2207 -0.2340 -0.1109
  977CHOL   ROH10244  14.792   0.624   3.109 -0.2478  0.0496 -0.0892
  977CHOL    R110245  14.834   0.810   3.318  0.1810 -0.1499  0.0040
  977CHOL    R210246  14.634   0.975   3.413  0.5844  0.3221  0.0149
  977CHOL    R310247  14.702   0.866   3.653  0.2364  0.0496  0.0031
  977CHOL    R410248  14.510   1.078   3.719  0.4879  0.3422 -0.0267
  977CHOL    R510249  14.710   1.053   3.803  0.4123 -0.0280  0.1227
  977CHOL    C110250  14.502   1.036   4.122  0.1050  0.0980 -0.0620
  977CHOL    C210251  14.363   1.414   4.189 -0.3497 -0.1528 -0.3085
  978POSM   NC310252   0.109  14.345   2.335  0.1367 -0.1110  0.0330
  978POSM   PO410253   0.113  13.925   2.268 -0.0845  0.1505 -0.0727
  978POSM   AM110254   0.017  13.883   2.679  0.1451  0.0608  0.0301
  978POSM   AM210255   0.345  13.891   2.720  0.1071 -0.4186 -0.0055
  978POSM   T1A10256   0.039  13.698   3.039 -0.2002 -0.0472  0.0763
  978POSM   C2A10257   0.066  13.626   3.508  0.1626  0.0562 -0.2197
  978POSM   C3A10258  -0.028  13.342   3.853  0.1128 -0.3440 -0.0498
  978POSM   C1B10259   0.503  14.060   3.113  0.1344 -0.2373 -0.0038
  978POSM   D2B10260   0.669  13.925   3.539 -0.1303 -0.0229 -0.2908
  978POSM   C3B10261   0.576  13.945   4.008 -0.1615  0.0661 -0.0482
  978POSM   C4B10262   0.911  13.763   4.179  0.1836 -0.0281  0.0749
  979CHOL   ROH10263   1.754   0.296   3.067 -0.1417  0.4618  0.1337
  979CHOL    R110264   1.886   0.356   3.310  0.0906  0.2601  0.0586
  979CHOL    R210265   1.801   0.258   3.554  0.0684  0.3998  0.1061
  979CHOL    R310266   2.057   0.168   3.571 -0.0566 -0.0075 -0.0302
  979CHOL    R410267   1.935   0.094   3.827 -0.0496  0.1799  0.0347
  979CHOL    R510268   2.119   0.207   3.799  0.1236 -0.1058 -0.0569
  979CHOL    C110269   2.253  -0.086   4.002 -0.2358 -0.3305 -0.1349
  979CHOL    C210270   2.327  -0.495   4.064 -0.2176 -0.2132 -0.0617
  980CHOL   ROH10271   1.442  15.182   2.712  0.1256  0.2438 -0.1635
  980CHOL    R110272   1.538  15.105   2.967  0.1408  0.1524 -0.1968
  980CHOL    R210273   1.631  15.287   3.152  0.1011  0.0900 -0.1178
  980CHOL    R310274   1.448  15.168   3.314  0.1268 -0.0190 -0.1678
  980CHOL    R410275   1.618  15.323   3.496  0.0136  0.0534 -0.1168
  980CHOL    R510276   1.571  15.110   3.511  0.1179  0.0252 -0.1468
  980CHOL    C110277   1.439  15.231   3.847 -0.0132 -0.0703 -0.1633
  980CHOL    C210278   1.368  15.142   4.218 -0.2005 -0.1334  0.0959
  981POPS   CNO10279  14.704  14.120   2.416 -0.0674  0.1092 -0.3519
  981POPS   PO410280  15.063  14.271   2.489  0.1290 -0.1773  0.0886
  981POPS   GL110281  15.065  14.051   2.840  0.2180  0.1710 -0.0122
  981POPS   GL210282  14.747  13.908   2.920  0.1318  0.1011  0.4432
  981POPS   C1A10283  15.100  13.831   3.296 -0.0385 -0.1479 -0.1628
  981POPS   D2A10284  15.138  13.767   3.737  0.1049  0.0932  0.2552
  981POPS   C3A10285  14.740  13.762   3.885 -0.1085 -0.1488 -0.1482
  981POPS   C4A10286  14.301  13.752   3.994 -0.2491  0.2249 -0.0178
  981POPS   C1B10287  14.653  13.773   3.308 -0.1079  0.0468 -0.1391
  981POPS   C2B10288  14.425  13.538   3.488  0.1588 -0.0038  0.1037
  981POPS   C3B10289  14.387  13.321   3.844 -0.2550 -0.1723 -0.1240
  981POPS   C4B10290  14.243  13.273   4.251 -0.0770  0.0378 -0.0344
  982CHOL   ROH10291  15.095  14.529   2.907 -0.0710  0.1806  0.1529
  982CHOL    R110292  15.020  14.521   3.180 -0.1148  0.1316  0.1402
  982CHOL    R210293  14.914  14.295   3.299 -0.0099  0.0674  0.1165
  982CHOL    R310294  15.118  14.332   3.476 -0.0603  0.1776  0.1514
  982CHOL    R410295  14.906  14.205   3.633  0.0553 -0.1285  0.0661
  982CHOL    R510296  15.009  14.391   3.681 -0.1373 -0.0476  0.1771
  982CHOL    C110297  15.093  14.188   3.993  0.0460 -0.1391  0.0696
  982CHOL    C210298  14.967  13.989   4.258  0.0669 -0.2646 -0.2064
  983POPS   CNO10299   0.391   2.290   2.104  0.1463  0.3306 -0.4266
  983POPS   PO410300   0.463   2.345   2.652  0.1718  0.1816 -0.1408
  983POPS   GL110301   0.484   2.234   3.028  0.2474 -0.0992  0.2148
  983POPS   GL210302   0.201   2.004   2.948  0.0976  0.1639 -0.0446
  983POPS   C1A10303   0.329   2.321   3.309 -0.0965  0.3317  0.2664
  983POPS   D2A10304   0.446   2.198   3.732 -0.1666  0.1101 -0.1218
  983POPS   C3A10305   0.240   2.234   4.017  0.0042 -0.1602 -0.0716
  983POPS   C4A10306   0.113   2.174   4.411 -0.0711  0.1301  0.2718
  983POPS   C1B10307   0.058   1.893   3.312 -0.0486  0.0892 -0.0304
  983POPS   C2B10308   0.062   1.823   3.755 -0.0880 -0.1853 -0.0502
  983POPS   C3B10309   0.061   1.655   4.174  0.0854 -0.1577  0.1866
  983POPS   C4B10310  -0.163   1.684   4.494  0.3044  0.0589  0.2845
  984POPS   CNO10311  14.412  15.082   2.283 -0.2166 -0.2123  0.1851
  984POPS   PO410312  14.239  14.885   2.604  0.3653 -0.2456 -0.2095
  984POPS   GL110313  14.447  14.697   2.913  0.1756  0.0410  0.0092
  984POPS   GL210314  14.589  14.376   2.880 -0.0269  0.1381 -0.0053
  984POPS   C1A10315  14.500  14.749   3.325  0.1476 -0.2665 -0.0021
  984POPS   D2A10316  14.552  14.556   3.651  0.0386 -0.1078 -0.0452
  984POPS   C3A10317  14.423  14.685   4.052  0.2565 -0.1466 -0.0081
  984POPS   C4A10318  14.676  14.956   4.366 -0.0527  0.1988 -0.4054
  984POPS   C1B10319  14.442  14.247   3.283  0.1653  0.1699 -0.2021
  984POPS   C2B10320  14.406  14.055   3.617 -0.0293 -0.0554 -0.3074
  984POPS   C3B10321  14.502  14.230   4.097 -0.4026  0.1829  0.1391
  984POPS   C4B10322  14.546  14.361   4.431  0.0334 -0.2166 -0.1739
  985CHOL   ROH10323   0.693  14.570   3.044  0.2906 -0.2718  0.0698
  985CHOL    R110324   0.583  14.618   3.300  0.1142 -0.2438 -0.0110
  985CHOL    R210325   0.535  14.415   3.482  0.0901 -0.2093  0.0133
  985CHOL    R310326   0.688  14.569   3.646 -0.0777 -0.0992  0.0708
  985CHOL    R410327   0.515  14.416   3.827 -0.0037 -0.2711  0.0094
  985CHOL    R510328   0.539  14.633   3.823 -0.1828 -0.2439  0.0405
  985CHOL    C110329   0.646  14.561   4.182 -0.2159 -0.2037  0.0611
  985CHOL    C210330   0.574  14.338   4.393 -0.0385 -0.1682 -0.0508
  986POSM   NC310331  14.446   0.937   2.146  0.1517  0.1228  0.2811
  986POSM   PO410332  14.060   0.882   2.295  0.0567  0.1606 -0.0302
  986POSM   AM110333  14.103   1.071   2.598  0.1440 -0.0434 -0.2864
  986POSM   AM210334  14.366   1.224   2.591 -0.0937 -0.0923  0.1064
  986POSM   T1A10335  13.919   1.098   2.995  0.2546  0.1740 -0.2330
  986POSM   C2A10336  14.078   1.192   3.401 -0.0719 -0.2259 -0.3794
  986POSM   C3A10337  14.042   1.229   3.851 -0.0021  0.1231 -0.0005
  986POSM   C1B10338  14.438   1.104   2.963 -0.2248 -0.0611  0.0115
  986POSM   D2B10339  14.310   0.674   3.165 -0.0053 -0.3287 -0.0542
  986POSM   C3B10340  14.188   0.680   3.576  0.0288 -0.0729  0.0467
  986POSM   C4B10341  14.161   0.742   3.944  0.1149  0.0521  0.0139
  987POPE   NH310342  14.160  15.411   2.526  0.0602 -0.0892  0.2610
  987POPE   PO410343  13.728  15.522   2.624 -0.0142  0.0688  0.2773
  987POPE   GL110344  14.000  15.526   2.966  0.0385 -0.2725 -0.1349
  987POPE   GL210345  14.096  15.223   3.033  0.1613 -0.0997  0.2811
  987POPE   C1A10346  14.058  15.674   3.402 -0.0995 -0.1024 -0.1651
  987POPE   D2A10347  14.097  15.741   3.937 -0.2658  0.0109  0.1425
  987POPE   C3A10348  13.839  15.717   4.237 -0.2376  0.3327  0.1166
  987POPE   C4A10349  13.818  15.814   4.736  0.1228 -0.4211  0.3814
  987POPE   C1B10350  14.021  15.058   3.350  0.1850 -0.0515 -0.0113
  987POPE   C2B10351  14.057  14.878   3.787  0.1415 -0.0108  0.2796
  987POPE   C3B10352  13.937  14.636   4.099  0.0645 -0.0679  0.1584
  987POPE   C4B10353  13.906  14.381   4.405  0.3728 -0.2592 -0.2544
  988CHOL   ROH10354   0.844   1.043   3.088 -0.0757  0.0787 -0.0720
  988CHOL    R110355   0.785   1.184   3.326 -0.0638  0.1202 -0.0941
  988CHOL    R210356   0.718   1.056   3.562 -0.1198  0.1644 -0.0891
  988CHOL    R310357   0.922   1.204   3.663 -0.0935  0.1241 -0.0812
  988CHOL    R410358   0.810   1.067   3.895 -0.1346  0.1428 -0.0839
  988CHOL    R510359   0.842   1.281   3.874 -0.0905  0.1396 -0.0830
  988CHOL    C110360   1.055   1.213   4.183 -0.1185  0.0923 -0.0734
  988CHOL    C210361   0.878   1.479   4.514  0.2832  0.1734  0.4921
  989CHOL   ROH10362   1.399   1.515   2.953 -0.1024  0.1922 -0.0076
  989CHOL    R110363   1.309   1.400   3.195 -0.0626  0.2792  0.0495
  989CHOL    R210364   1.462   1.225   3.343 -0.1471  0.1090 -0.0623
  989CHOL    R310365   1.414   1.402   3.544  0.1757  0.1566 -0.0199
  989CHOL    R410366   1.558   1.181   3.672  0.0049 -0.0196 -0.1221
  989CHOL    R510367   1.366   1.264   3.734  0.1329  0.1970  0.0020
  989CHOL    C110368   1.568   1.322   4.052  0.3965 -0.0498 -0.1171
  989CHOL    C210369   1.532   1.280   4.425  0.0682 -0.1810 -0.4410
  990CHOL   ROH10370   0.012   1.420   3.089 -0.1515  0.0036 -0.0304
  990CHOL    R110371   0.031   1.286   3.337 -0.1820  0.0045 -0.0298
  990CHOL    R210372   0.272   1.237   3.462 -0.2009 -0.0639 -0.0445
  990CHOL    R310373   0.154   1.364   3.671 -0.1467 -0.0318 -0.0306
  990CHOL    R410374   0.372   1.206   3.791 -0.1520 -0.0996 -0.0612
  990CHOL    R510375   0.160   1.202   3.849 -0.1585 -0.0482 -0.0325
  990CHOL    C110376   0.318   1.306   4.180 -0.0726 -0.0902 -0.0579
  990CHOL    C210377   0.519   1.128   4.407 -0.0495 -0.1494 -0.0936
  991POPE   NH310378   1.275  14.399   2.627 -0.1437 -0.1091 -0.0563
  991POPE   PO410379   0.925  14.561   2.599 -0.1877  0.0931  0.0148
  991POPE   GL110380   1.088  14.903   2.955 -0.0233  0.0229  0.1629
  991POPE   GL210381   0.991  15.254   2.969 -0.0690  0.0707  0.3208
  991POPE   C1A10382   1.029  14.824   3.339  0.1041  0.1704  0.0139
  991POPE   D2A10383   1.080  14.992   3.631 -0.1320  0.0885 -0.0565
  991POPE   C3A10384   1.046  14.836   3.990 -0.0010 -0.1701  0.1575
  991POPE   C4A10385   1.106  14.722   4.382 -0.0453  0.1226  0.1511
  991POPE   C1B10386   0.971  15.404   3.336 -0.3368  0.0057 -0.1103
  991POPE   C2B10387   0.977  15.396   3.842 -0.1768 -0.1155 -0.0755
  991POPE   C3B10388   0.885  15.410   4.165  0.1176  0.1846  0.1801
  991POPE   C4B10389   0.722  15.563   4.472 -0.0372 -0.0997 -0.3072
  992CHOL   ROH10390   1.267   0.212   2.955 -0.0468 -0.1743 -0.0187
  992CHOL    R110391   1.388   0.192   3.211 -0.0983 -0.0858  0.0125
  992CHOL    R210392   1.398   0.404   3.388 -0.1589 -0.0344 -0.0499
  992CHOL    R310393   1.281   0.226   3.557 -0.1731  0.0043 -0.0182
  992CHOL    R410394   1.387   0.436   3.732  0.2254 -0.1815 -0.0185
  992CHOL    R510395   1.425   0.222   3.748  0.0229 -0.2349 -0.1617
  992CHOL    C110396   1.271   0.288   4.091  0.4358 -0.2309  0.0297
  992CHOL    C210397   1.308   0.132   4.476  0.1722  0.4072 -0.0718
  993POPS   CNO10398  14.830   0.573   2.224  0.0476 -0.1468 -0.2497
  993POPS   PO410399  15.258   0.619   2.519  0.0779  0.1226 -0.1107
  993POPS   GL110400  15.242   0.608   2.909 -0.0117  0.0965 -0.2495
  993POPS   GL210401  15.377   0.921   2.972  0.0347  0.0996 -0.1622
  993POPS   C1A10402  15.435   0.409   3.148  0.0999  0.0623  0.2814
  993POPS   D2A10403  15.426   0.343   3.518  0.2861  0.1621  0.1745
  993POPS   C3A10404  15.567   0.169   3.813 -0.0952  0.2921  0.1031
  993POPS   C4A10405  15.705  -0.034   4.195  0.0290 -0.0907  0.0309
  993POPS   C1B10406  15.287   0.804   3.419 -0.0255 -0.3921 -0.2718
  993POPS   C2B10407  15.189   0.963   3.800  0.0006  0.1444  0.1250
  993POPS   C3B10408  14.959   0.843   4.177 -0.0099 -0.0682  0.1697
  993POPS   C4B10409  14.668   0.506   4.047 -0.2588  0.4121 -0.2480
  994POPE   NH310410  15.310  14.771   2.546  0.0455  0.1325 -0.0569
  994POPE   PO410411  15.797  14.806   2.672  0.3588  0.1249  0.0245
  994POPE   GL110412  15.593  14.554   2.980 -0.2531 -0.2917 -0.0433
  994POPE   GL210413  15.518  14.318   2.879  0.2132  0.1180  0.1441
  994POPE   C1A10414  15.483  14.626   3.378 -0.2197  0.0574  0.3946
  994POPE   D2A10415  15.510  14.679   3.701  0.2205 -0.0223 -0.1368
  994POPE   C3A10416  15.483  14.580   4.030 -0.2732 -0.0026 -0.1508
  994POPE   C4A10417  15.578  14.224   4.219  0.0857 -0.2908  0.1970
  994POPE   C1B10418  15.501  14.145   3.281 -0.0516  0.0083 -0.3548
  994POPE   C2B10419  15.568  14.082   3.643  0.2828  0.1764 -0.1294
  994POPE   C3B10420  15.600  13.800   3.982 -0.2803 -0.1960  0.1006
  994POPE   C4B10421  15.301  13.614   4.267  0.1106 -0.1650 -0.2408
  995CHOL   ROH10422  14.865  14.977   3.024 -0.1397  0.0014  0.0506
  995CHOL    R110423  14.996  14.963   3.275  0.1239 -0.2079 -0.0947
  995CHOL    R210424  14.874  15.038   3.511  0.5361  0.0870  0.0392
  995CHOL    R310425  14.945  14.788   3.590  0.1295 -0.0500 -0.0059
  995CHOL    R410426  14.823  14.907   3.827  0.2551  0.0651 -0.0119
  995CHOL    R510427  15.020  14.815   3.815  0.1132 -0.2343  0.0187
  995CHOL    C110428  14.861  14.596   4.085 -0.2903 -0.0763 -0.0840
  995CHOL    C210429  15.073  14.561   4.435 -0.0411 -0.3011 -0.0601
  996POPC   NC310430  14.866   0.371   2.671  0.3425  0.1468 -0.1679
  996POPC   PO410431  14.440   0.285   2.824 -0.0228  0.1670  0.0357
  996POPC   GL110432  14.587   0.122   3.108 -0.0535 -0.1650 -0.0133
  996POPC   GL210433  14.582  -0.109   3.208 -0.0936  0.1381 -0.2386
  996POPC   C1A10434  14.558   0.305   3.491  0.0890  0.0222  0.0954
  996POPC   D2A10435  14.989   0.484   3.604  0.1413 -0.1940 -0.1553
  996POPC   C3A10436  15.157   0.380   3.988 -0.3843 -0.0784  0.0546
  996POPC   C4A10437  15.202  -0.025   4.229  0.0997 -0.0992 -0.0305
  996POPC   C1B10438  14.464  -0.206   3.561  0.1756  0.1882 -0.0102
  996POPC   C2B10439  14.290  -0.170   3.926  0.0094 -0.2038 -0.2372
  996POPC   C3B10440  14.224  -0.304   4.305  0.1079 -0.0568  0.2239
  996POPC   C4B10441  14.170  -0.695   4.529  0.0178  0.1047  0.0699
  997CHOL   ROH10442   0.588  14.978   3.049  0.1674 -0.0534  0.0460
  997CHOL    R110443   0.563  15.121   3.291  0.2448 -0.0088  0.0273
  997CHOL    R210444   0.394  15.042   3.494  0.1269  0.1652 -0.0075
  997CHOL    R310445   0.619  15.056   3.645  0.1040 -0.0282  0.0479
  997CHOL    R410446   0.399  15.042   3.839  0.0304  0.1797 -0.0053
  997CHOL    R510447   0.557  15.193   3.832  0.1729  0.0428  0.0251
  997CHOL    C110448   0.614  15.054   4.182 -0.0473  0.0065  0.0479
  997CHOL    C210449   0.451  15.167   4.559  0.0578 -0.2010  0.0399
  998CHOL   ROH10450   0.507   0.728   3.162  0.1396  0.3478  0.1455
  998CHOL    R110451   0.383   0.627   3.395  0.1517  0.0673  0.0350
  998CHOL    R210452   0.483   0.672   3.649 -0.0023  0.0247  0.1057
  998CHOL    R310453   0.232   0.766   3.696 -0.1278 -0.2788  0.0618
  998CHOL    R410454   0.346   0.718   3.963 -0.0232  0.0822  0.0878
  998CHOL    R510455   0.157   0.640   3.886  0.0685 -0.2372  0.1707
  998CHOL    C110456   0.030   0.833   4.189 -0.1531 -0.1693  0.0361
  998CHOL    C210457  -0.075   1.124   4.395  0.0854 -0.0559 -0.1940
  999POPC   NC310458   0.888  15.049   2.529 -0.0727  0.0881 -0.1632
  999POPC   PO410459   1.073  15.497   2.496 -0.3795  0.0933 -0.1759
  999POPC   GL110460   0.833  15.738   2.775  0.0804 -0.1703  0.2693
  999POPC   GL210461   0.942  16.008   2.904  0.0725  0.0306  0.2726
  999POPC   C1A10462   0.547  15.618   3.027 -0.0548  0.0606 -0.1266
  999POPC   D2A10463   0.520  15.540   3.519 -0.2974  0.1046  0.0435
  999POPC   C3A10464   0.592  15.705   3.951  0.1407  0.1801 -0.0909
  999POPC   C4A10465   0.391  15.873   4.357 -0.1133  0.2541  0.1808
  999POPC   C1B10466   0.919  15.885   3.311  0.2037  0.0834 -0.0105
  999POPC   C2B10467   0.915  15.951   3.707 -0.1766  0.0459  0.0854
  999POPC   C3B10468   0.798  16.080   4.119  0.0320 -0.0783  0.1974
  999POPC   C4B10469   1.016  15.948   4.497 -0.2366 -0.0293  0.0944
 1000POSM   NC310470  14.541  15.254   2.747 -0.0579 -0.1901  0.3415
 1000POSM   PO410471  14.959  15.253   2.649 -0.3663  0.1323 -0.0930
 1000POSM   AM110472  15.146  15.514   2.930 -0.0181  0.1276  0.3090
 1000POSM   AM210473  15.441  15.506   2.811 -0.0219  0.5886 -0.2318
 1000POSM   T1A10474  15.048  15.500   3.392 -0.2298 -0.0115 -0.3243
 1000POSM   C2A10475  14.877  15.411   3.833 -0.1579 -0.0210 -0.0711
 1000POSM   C3A10476  14.711  15.451   4.168  0.1092 -0.0564  0.1066
 1000POSM   C1B10477  15.590  15.402   3.227 -0.1483 -0.0123  0.1037
 1000POSM   D2B10478  15.372  15.140   3.518 -0.1410  0.1926  0.3145
 1000POSM   C3B10479  15.375  15.144   3.903 -0.0522 -0.1113  0.0061
 1000POSM   C4B10480  15.228  14.987   4.350  0.1550 -0.0184  0.2934
 1001W        W10481   6.536   4.850   8.034 -0.0267  0.2404  0.0032
 1002W        W10482   1.385   0.922   0.706  0.0512  0.2413 -0.1239
 1003W        W10483  14.729   1.836   7.010  0.2780 -0.3130  0.0096
 1004W        W10484  13.316   0.196   1.397 -0.1775 -0.1218 -0.2062
 1005W        W10485   0.627   7.767   0.305  0.3465  0.0896 -0.0566
 1006W        W10486   1.114   3.449   7.800 -0.0143 -0.0571 -0.0970
 1007W        W10487  14.891   3.464   1.810 -0.3228  0.1788 -0.0460
 1008W        W10488   3.364   4.737   8.622  0.2340  0.1505 -0.0922
 1009W        W10489   8.206   7.577   0.767 -0.1086 -0.0234  0.1223
 1010W        W10490   6.988   1.781   0.158  0.0363  0.2528  0.2049
 1011W        W10491  13.770   9.149   2.507 -0.0142  0.5372 -0.0271
 1012W        W10492   0.708  12.181   7.563 -0.1564  0.0268  0.0073
 1013W        W10493  11.555   4.886   0.497 -0.2276 -0.2526 -0.0527
 1014W        W10494   2.424   4.507   6.122  0.3865  0.2471 -0.0830
 1015W        W10495   3.159   2.977   2.159  0.1907 -0.0268 -0.1492
 1016W        W10496   0.742  11.141   0.365 -0.4716  0.1663 -0.0904
 1017W        W10497   1.634   0.550   1.789 -0.1020  0.1703  0.0429
 1018W        W10498   1.665   5.490   0.133 -0.0416  0.0673 -0.0158
 1019W        W10499  13.137  12.692   7.124 -0.1671 -0.0097 -0.0458
 1020W        W10500   5.823   5.702   8.844 -0.2641  0.2341  0.0770
 1021W        W10501   2.848  13.076   0.874  0.2590  0.3067  0.1770
 1022W        W10502   3.931   5.621   0.721  0.3031 -0.1243 -0.1712
 1023W        W10503   0.033   7.706   7.190 -0.4109 -0.2630 -0.2271
 1024W        W10504  15.441   3.047   8.771 -0.1435 -0.2919  0.0637
 1025W        W10505   3.508   4.359   0.510  0.0721  0.3085  0.0539
 1026W        W10506   5.317  12.325   8.822  0.0938  0.2948 -0.0900
 1027W        W10507   5.827  10.527   7.633 -0.0958 -0.0849  0.0472
 1028W        W10508  14.477   2.656   6.908 -0.1569 -0.1718 -0.1141
 1029W        W10509   3.263   5.132   8.315  0.0459 -0.1661  0.1463
 1030W        W10510   3.465   0.667   2.561  0.0204  0.0211  0.2735
 1031W        W10511   2.602  15.027   0.686 -0.1503 -0.0398  0.1315
 1032W        W10512  13.747   5.555   7.939 -0.0995  0.3799  0.1367
 1033W        W10513   5.868  15.056   8.320  0.0560  0.4064  0.0230
 1034W        W10514  15.189   3.259   0.434  0.0216 -0.0539  0.2072
 1035W        W10515   4.835   0.612   7.010  0.0802  0.1527  0.1131
 1036W        W10516   3.251  13.897   8.914  0.0720  0.0976 -0.1885
 1037W        W10517   2.959   4.606   8.892 -0.2425 -0.1542  0.0412
 1038W        W10518   4.335   0.732   0.728  0.0593  0.0335  0.0398
 1039W        W10519   1.234   3.968   1.772 -0.0611 -0.1893 -0.4083
 1040W        W10520   1.737  14.686   1.310  0.1241  0.0600  0.2171
 1041W        W10521  10.809  13.460   1.231  0.0173 -0.3357 -0.1395
 1042W        W10522   4.934   1.606   7.618  0.1507 -0.1839 -0.0759
 1043W        W10523   5.706   1.375   6.380  0.5056 -0.2329  0.2651
 1044W        W10524  14.977  13.714   0.991  0.0371 -0.2275  0.1895
 1045W        W10525   5.441  14.395   0.298  0.1736 -0.1908  0.2099
 1046W        W10526   1.528   3.245   7.899 -0.0908 -0.1787 -0.1078
 1047W        W10527   5.900   2.593   1.968  0.0034 -0.0654  0.1999
 1048W        W10528   3.657   0.376   7.624  0.2867  0.1028 -0.0245
 1049W        W10529   4.641   4.584   1.018  0.0574 -0.0494 -0.2565
 1050W        W10530   0.415   0.322   8.105 -0.1331  0.2674  0.1833
 1051W        W10531  15.246   0.601   1.199  0.1749 -0.3585 -0.2708
 1052W        W10532   4.087   5.910   7.882  0.0447 -0.0633  0.2004
 1053W        W10533   3.016   2.022   0.809 -0.1348  0.2067 -0.1657
 1054W        W10534   3.124   3.255   0.916 -0.1593  0.1043  0.0535
 1055W        W10535  12.324   1.066   6.917  0.3098 -0.1981 -0.2591
 1056W        W10536   2.664   5.212   2.192 -0.0407 -0.2480  0.4794
 1057W        W10537  15.375  14.141   7.562  0.0715 -0.0250  0.2676
 1058W        W10538  13.337   1.784   1.685 -0.0946 -0.2665  0.0440
 1059W        W10539   4.692   1.421   6.499  0.0234 -0.0904  0.2038
 1060W        W10540   7.643   3.068   7.981  0.0328  0.1782 -0.1449
 1061W        W10541   4.284  13.970   1.168 -0.1536 -0.0572 -0.0271
 1062W        W10542   3.492  15.432   0.301 -0.0401  0.0748 -0.0281
 1063W        W10543   9.521  12.868   6.840 -0.0550  0.3582  0.2419
 1064W        W10544   7.079   5.111   7.283 -0.0046 -0.0002  0.1548
 1065W        W10545   4.139   2.103   2.608 -0.1342  0.2835  0.0022
 1066W        W10546  15.368   1.657   8.442  0.1966 -0.0501 -0.0704
 1067W        W10547   1.006   2.895   8.737  0.0129  0.2455  0.1540
 1068W        W10548  11.861   0.257   1.513 -0.3413  0.0760 -0.3014
 1069W        W10549   0.146  10.656   8.737  0.1055  0.0444  0.1861
 1070W        W10550   2.029   2.786   7.665 -0.0974  0.1312  0.0692
 1071W        W10551  15.146   6.197   8.642  0.1678  0.1654 -0.0371
 1072W        W10552   5.324  10.733   8.352 -0.2134 -0.2312 -0.0404
 1073W        W10553   4.070  11.629   1.352 -0.0272  0.0082 -0.2007
 1074W        W10554  13.195  14.174   1.161  0.2803  0.1481 -0.1143
 1075W        W10555   6.373   3.376   6.382  0.0937 -0.1431 -0.1346
 1076W        W10556   3.324   8.518   6.496 -0.1528  0.0409 -0.2066
 1077W        W10557   2.050   5.153   0.440  0.1570 -0.1640 -0.2142
 1078W        W10558   3.392  14.399   1.074  0.1597  0.0034  0.1213
 1079W        W10559  15.094   5.084   1.835 -0.0991 -0.3763  0.2088
 1080W        W10560  10.276   2.452   0.092 -0.1434  0.3229  0.3320
 1081W        W10561   2.934   4.214   1.107  0.1595 -0.1308  0.2702
 1082W        W10562   5.205  13.483   7.322 -0.3525 -0.1483 -0.2029
 1083W        W10563  14.418   6.403   9.066  0.0742  0.2625 -0.1702
 1084W        W10564  15.301  12.404   2.108  0.0985  0.0954  0.0351
 1085W        W10565  15.322   2.592   7.346 -0.1196  0.0694 -0.0564
 1086W        W10566   1.681   1.424   2.139 -0.1961  0.4315  0.0786
 1087W        W10567   3.112  14.194   8.513  0.0283 -0.0835  0.1469
 1088W        W10568  12.011   5.477   7.466 -0.0224 -0.0310 -0.0713
 1089W        W10569   5.198   0.150   8.434 -0.0897  0.2240 -0.1286
 1090W        W10570   1.373  11.839   7.883 -0.0722 -0.0843 -0.0947
 1091W        W10571  14.859   3.241   6.409  0.0720 -0.1659 -0.0561
 1092W        W10572   2.547   5.023   1.176 -0.0002  0.0614  0.2028
 1093W        W10573   9.439   1.990   0.162  0.2806  0.0654  0.1554
 1094W        W10574   1.807   1.482   7.077 -0.0253 -0.1634 -0.1607
 1095W        W10575  12.042   7.000   8.123 -0.0668 -0.0140 -0.0713
 1096W        W10576   3.439   0.127   8.352  0.1395 -0.0607  0.1548
 1097W        W10577   6.348   0.413   1.908  0.2922  0.0988  0.1026
 1098W        W10578   9.193   7.956   0.165 -0.0753  0.0092  0.1934
 1099W        W10579   2.444  15.362   1.939  0.3492 -0.2435  0.1461
 1100W        W10580  14.354  14.607   0.332  0.0978  0.1898 -0.1433
 1101W        W10581   3.419  11.549   0.054 -0.0370  0.1209 -0.0592
 1102W        W10582   5.903  12.700   0.503  0.2250 -0.2177 -0.0204
 1103W        W10583   0.124  13.477   0.682 -0.2895  0.2400 -0.2370
 1104W        W10584   2.824   0.473   7.647 -0.0736 -0.2750 -0.1219
 1105W        W10585   3.778   2.372   0.661 -0.2761 -0.0161 -0.0543
 1106W        W10586  15.133  12.793   0.488  0.0682 -0.1265  0.1900
 1107W        W10587  14.440  13.269   8.493 -0.0903  0.3143 -0.2726
 1108W        W10588   4.096  14.773   1.527 -0.1786 -0.0261  0.0219
 1109W        W10589  11.564  13.695   8.881 -0.5557 -0.0322 -0.2051
 1110W        W10590  11.590   0.029   7.792  0.0254 -0.1970 -0.0957
 1111W        W10591  10.517   0.371   8.886 -0.0938  0.0075  0.0062
 1112W        W10592   0.342   4.982   7.603  0.2031 -0.0496  0.0111
 1113W        W10593   0.027   0.425   7.805  0.0736 -0.2334 -0.4181
 1114W        W10594  14.411   2.086   1.500  0.1257 -0.2340 -0.3083
 1115W        W10595  14.852   6.045   7.519  0.1509  0.0874 -0.0758
 1116W        W10596   6.285  12.998   0.872 -0.1140  0.2447 -0.2351
 1117W        W10597   4.929   5.485   0.973  0.1593  0.0773  0.0020
 1118W        W10598   2.918   3.859   7.996 -0.2625  0.1029  0.0796
 1119W        W10599   3.768  13.801   8.587  0.3922  0.2075  0.2331
 1120W        W10600   4.478   2.821   0.985  0.2766  0.1579 -0.0293
 1121W        W10601  14.981   1.298   1.653 -0.0564 -0.2115 -0.0943
 1122W        W10602  10.977   6.137   8.088  0.0231  0.0252 -0.2216
 1123W        W10603   7.393   6.298   1.216  0.3183  0.0502  0.0965
 1124W        W10604   4.713  13.129   9.097  0.1534  0.2118 -0.0097
 1125W        W10605  15.246   6.467   8.142  0.2677 -0.1879  0.2243
 1126W        W10606  11.883  13.376   7.625 -0.3255  0.2510  0.2350
 1127W        W10607  13.702   2.579   8.214 -0.1194 -0.0371 -0.0380
 1128W        W10608   2.324  14.046   2.546  0.1911  0.1164 -0.3303
 1129W        W10609   0.952   1.083   1.549 -0.4320  0.0422  0.2687
 1130W        W10610  13.016   6.510   0.498 -0.0341  0.1805  0.3054
 1131W        W10611  12.151   1.706   2.364  0.2164  0.0206  0.3039
 1132W        W10612   0.866  12.633   2.087 -0.1703  0.2359  0.0193
 1133W        W10613   4.152   1.069   8.687  0.0492 -0.0389  0.1182
 1134W        W10614  13.763  12.965   7.143 -0.2314 -0.2489 -0.1540
 1135W        W10615   5.340  15.357   0.380 -0.0704 -0.3972  0.4475
 1136W        W10616   0.940   3.388   8.966  0.0686 -0.3110  0.1275
 1137W        W10617   2.618  11.711   8.845 -0.1911  0.1518  0.1289
 1138W        W10618   1.953   2.977   8.123 -0.0344 -0.0653  0.0757
 1139W        W10619   3.000   2.777   7.335  0.1644  0.0946 -0.1053
 1140W        W10620   2.134  10.619   6.728 -0.1042 -0.3838  0.0018
 1141W        W10621  11.396   0.284   0.351 -0.2854 -0.0297 -0.1344
 1142W        W10622   1.513   2.217   0.389 -0.3648 -0.0099  0.1124
 1143W        W10623   1.665   3.185   0.595 -0.0178 -0.0776 -0.0582
 1144W        W10624   4.471   3.668   7.437 -0.2174  0.1145  0.0886
 1145W        W10625   3.965   0.787   9.074 -0.0651 -0.3905  0.1471
 1146W        W10626   5.096   4.138   2.674 -0.1663  0.2208  0.2201
 1147W        W10627   7.343   2.702   0.273 -0.2813  0.2695  0.1447
 1148W        W10628   3.594   3.028   8.826 -0.2924 -0.3155 -0.0963
 1149W        W10629  14.131   3.877   8.854  0.0733 -0.6133  0.2861
 1150W        W10630   4.262  14.146   8.483 -0.1244  0.1644  0.2310
 1151W        W10631  15.082  11.755   0.131  0.0059  0.1732  0.5251
 1152W        W10632   6.539   3.200   6.877  0.0413  0.2133 -0.0243
 1153W        W10633   5.350   7.488   8.080  0.1544 -0.2914  0.0045
 1154W        W10634   4.705   5.140   7.546 -0.2633 -0.0464  0.2258
 1155W        W10635   2.513   2.203   2.470 -0.0300 -0.3038 -0.1797
 1156W        W10636  12.681  15.451   0.647  0.2188  0.3591  0.0373
 1157W        W10637   1.615   4.388   9.093  0.0579  0.2060 -0.0699
 1158W        W10638   6.591   5.037   7.410 -0.0497  0.3020  0.1756
 1159W        W10639   0.515   0.258   2.388 -0.0070  0.0880 -0.1319
 1160W        W10640   3.458   0.300   6.984 -0.3123 -0.1584  0.3054
 1161W        W10641   9.117  13.348   7.287 -0.2209 -0.0652 -0.0971
 1162W        W10642   0.672   2.902   0.119 -0.0373 -0.3734  0.0592
 1163W        W10643   3.560  12.469   8.521 -0.0004  0.1249 -0.1265
 1164W        W10644  14.664   3.943   1.864  0.0313 -0.0749  0.2525
 1165W        W10645   6.595  14.754   7.276  0.0169 -0.2993 -0.0116
 1166W        W10646  14.719   0.558   7.718 -0.0040  0.0390  0.4773
 1167W        W10647   3.957  14.731   2.604  0.0624 -0.0340 -0.0776
 1168W        W10648   3.982  10.848   1.821 -0.0489 -0.1963  0.0306
 1169W        W10649   7.274   3.040   1.598 -0.0899 -0.1357  0.2082
 1170W        W10650   1.453  14.264   8.494  0.1471  0.1884 -0.0938
 1171W        W10651   7.462   4.289   6.730 -0.1140  0.0981  0.0834
 1172W        W10652   5.205   2.692   1.742  0.0006  0.0589  0.1900
 1173W        W10653   7.466   8.348   7.363  0.1106  0.1276 -0.1022
 1174W        W10654  13.888   1.177   0.674 -0.0257  0.2121  0.0103
 1175W        W10655   2.678  15.345   6.865  0.2287  0.0322  0.2393
 1176W        W10656   6.209  14.287   8.773  0.4484 -0.1854  0.0158
 1177W        W10657   1.996   3.212   1.937  0.1970  0.2447  0.0769
 1178W        W10658  10.188  12.740   0.679 -0.1456 -0.1723 -0.1995
 1179W        W10659   1.969   5.115   6.677  0.3496 -0.0430 -0.1362
 1180W        W10660   2.665  14.197   2.243  0.2018  0.0253  0.3268
 1181W        W10661   5.450  13.232   8.692  0.1897 -0.3357  0.0569
 1182W        W10662   1.118  13.334   0.470  0.2068 -0.0262  0.3564
 1183W        W10663  15.340   1.458   7.152  0.0332  0.0407 -0.1727
 1184W        W10664   1.299   3.787   6.886 -0.2227 -0.1677 -0.2047
 1185W        W10665   4.895   1.765   2.226 -0.1356 -0.0523 -0.1205
 1186W        W10666  13.593   8.666   0.032 -0.0952 -0.0084  0.1594
 1187W        W10667  13.887   3.219   0.576  0.1867  0.4069  0.0225
 1188W        W10668  14.911   2.973   0.028  0.1118  0.1955 -0.0962
 1189W        W10669   2.647   0.823   7.970 -0.1430  0.0426  0.3167
 1190W        W10670   1.218  11.981   8.972  0.2828  0.2306  0.0424
 1191W        W10671   2.741  11.900   8.344  0.0821  0.0022  0.0796
 1192W        W10672  13.411   5.305   7.087 -0.1384  0.0163  0.0474
 1193W        W10673  13.688   0.732   8.665 -0.1162 -0.0962  0.3411
 1194W        W10674   6.580  12.347   8.811  0.1525 -0.1464 -0.0399
 1195W        W10675  13.839  12.693   0.338 -0.1790  0.0400  0.0674
 1196W        W10676  10.242   1.085   2.254 -0.0818  0.2464  0.0452
 1197W        W10677  13.042  10.246   2.021  0.0248 -0.0870 -0.1816
 1198W        W10678   4.423  12.042   7.879  0.1262 -0.1878  0.1349
 1199W        W10679   6.138   7.754   7.025 -0.1438 -0.0834 -0.3710
 1200W        W10680   0.686   1.755   8.936 -0.0382 -0.2328 -0.1517
 1201W        W10681   2.818   3.796   6.534  0.0296  0.2138  0.1853
 1202W        W10682   2.692   3.703   1.511  0.1588  0.2196  0.0250
 1203W        W10683   3.037   0.627   1.555  0.1606  0.0113 -0.1810
 1204W        W10684  14.149  13.567   0.759 -0.2263  0.1198 -0.0790
 1205W        W10685   8.062   2.219   6.968 -0.0504 -0.1479  0.0968
 1206W        W10686   3.646   5.478   8.241 -0.0027  0.3605  0.0896
 1207W        W10687   0.352   7.221   1.155  0.0632 -0.3113 -0.2216
 1208W        W10688   9.169   5.882   7.183 -0.0563  0.0798 -0.2215
 1209W        W10689   3.207   2.575   0.097 -0.0968 -0.2406 -0.1785
 1210W        W10690   6.205   6.597   7.766  0.0109  0.2186 -0.1450
 1211W        W10691   5.063   4.002   8.654 -0.3667  0.0111 -0.2643
 1212W        W10692   6.657   8.199   0.928  0.3296  0.0026  0.1623
 1213W        W10693   9.101   3.281   1.071 -0.0828  0.3264  0.4722
 1214W        W10694   5.339   0.491   8.063  0.3390  0.1096  0.0717
 1215W        W10695   2.127   7.855   2.093  0.0794  0.1654  0.1020
 1216W        W10696  12.824   5.831   7.255 -0.2246 -0.3277  0.0453
 1217W        W10697   2.141   3.770   1.265 -0.1881 -0.2276  0.2584
 1218W        W10698   4.580   2.376   6.657 -0.4802  0.0141  0.1010
 1219W        W10699   2.455   7.653   1.456  0.0195 -0.3426 -0.0894
 1220W        W10700  10.061   3.624   1.381  0.2457 -0.1310  0.1023
 1221W        W10701   2.827   2.923   1.766  0.0210 -0.0599 -0.0594
 1222W        W10702   5.161   0.638   1.171  0.1395  0.0568 -0.2003
 1223W        W10703  15.051  15.426   8.406 -0.4396 -0.3265  0.0105
 1224W        W10704   6.622   4.468   0.991 -0.1854  0.0655  0.1173
 1225W        W10705   8.727  13.633   6.391 -0.2567 -0.2858  0.0907
 1226W        W10706   4.864   0.096   0.215 -0.1223 -0.0172  0.2460
 1227W        W10707   7.621  13.159   2.020 -0.1390  0.0272 -0.2053
 1228W        W10708   9.168   2.217   0.996 -0.1569 -0.0096  0.0221
 1229W        W10709   0.590   8.648   1.819 -0.1712 -0.0484  0.3728
 1230W        W10710   7.379   3.525   8.061  0.2435 -0.1412  0.0781
 1231W        W10711   8.049   4.734   7.035 -0.1424  0.0855  0.3414
 1232W        W10712   3.082   5.705   7.175  0.0500 -0.4109  0.3566
 1233W        W10713   5.870   2.041   1.223 -0.0544  0.0288 -0.1073
 1234W        W10714  12.300  14.102   0.939  0.1750  0.0098 -0.1196
 1235W        W10715   2.845   1.889   8.526  0.3351 -0.0716  0.0839
 1236W        W10716  14.334   3.680   8.353  0.0881  0.0280  0.1401
 1237W        W10717   8.289  14.515   7.438 -0.0856  0.0632  0.2560
 1238W        W10718   3.224  11.124   1.488  0.1058  0.0680  0.1184
 1239W        W10719  15.308   2.983   7.068  0.1742  0.0039 -0.0988
 1240W        W10720   8.889  14.203   8.152  0.1913 -0.1020 -0.0373
 1241W        W10721   4.224   1.555   1.575  0.0177  0.1294  0.1894
 1242W        W10722  13.753  14.622   0.034  0.1573  0.2234  0.0771
 1243W        W10723   8.847   3.135   8.357  0.0714  0.3711  0.0422
 1244W        W10724   0.044   0.518   0.280 -0.2828  0.1459  0.0782
 1245W        W10725   5.094   0.048   7.860 -0.1327 -0.2509 -0.1037
 1246W        W10726   4.873   1.112   0.193 -0.1282 -0.0630 -0.0412
 1247W        W10727   6.967  13.466   0.454  0.0925 -0.3316  0.0310
 1248W        W10728   7.843   3.891   8.647  0.2723  0.0800 -0.0895
 1249W        W10729   3.605  14.758   8.819 -0.1561 -0.4187 -0.1470
 1250W        W10730   8.614  14.593   1.292 -0.1954 -0.2355 -0.0442
 1251W        W10731   3.152  15.330   6.956 -0.3094 -0.1239  0.1049
 1252W        W10732   0.615   2.413   1.645 -0.1696  0.1856  0.3387
 1253W        W10733   1.644   6.207   1.161  0.2228 -0.0671  0.0239
 1254W        W10734   6.367   0.477   8.099  0.1644 -0.0022  0.0603
 1255W        W10735   4.525  11.170   8.197  0.0826  0.0935  0.0406
 1256W        W10736   6.507   6.205   8.249  0.0945 -0.1135  0.2854
 1257W        W10737   3.627  15.137   0.672 -0.2744  0.2596 -0.1874
 1258W        W10738   6.300   6.464   8.659  0.0869  0.2801 -0.1431
 1259W        W10739   4.843   2.697   2.232 -0.2922  0.1819  0.0682
 1260W        W10740   1.187   2.151   8.660  0.1110 -0.3081 -0.2024
 1261W        W10741  10.276   0.161   7.196  0.2067  0.2638 -0.4950
 1262W        W10742   7.934  13.455   8.871 -0.1885 -0.0993 -0.3920
 1263W        W10743   2.596  11.883   2.342  0.4447 -0.0409 -0.3499
 1264W        W10744   5.540   0.170   7.646 -0.3033 -0.1498  0.1370
 1265W        W10745   5.701   8.671   2.301  0.0573  0.3059  0.0413
 1266W        W10746  10.525   0.001   0.593  0.0393  0.1103 -0.0329
 1267W        W10747   8.081   6.044   8.099  0.1426  0.2991 -0.0921
 1268W        W10748   1.203   4.614   7.722  0.2550 -0.0745 -0.0975
 1269W        W10749   0.513  14.203   8.489 -0.0465 -0.0830  0.1643
 1270W        W10750   1.746   2.381   1.647 -0.3874 -0.0648  0.2347
 1271W        W10751   7.353   2.209   7.661 -0.0634  0.1848  0.1488
 1272W        W10752  14.631   1.324   8.870 -0.2997 -0.1016 -0.1965
 1273W        W10753   6.927   1.613   7.414 -0.2794 -0.0278 -0.1552
 1274W        W10754   3.917   3.019   8.386  0.0988  0.1592  0.1059
 1275W        W10755   5.291   2.623   8.957 -0.2234 -0.2250  0.1056
 1276W        W10756   6.279   7.152   2.670  0.2378  0.1035  0.1379
 1277W        W10757  14.476   3.978   1.100  0.0697 -0.0941  0.1517
 1278W        W10758  14.295   3.466   7.539 -0.1731  0.3075  0.1536
 1279W        W10759   6.074   5.040   8.820  0.1308  0.3917  0.0056
 1280W        W10760  13.841  12.548   8.545 -0.1308  0.2433 -0.0831
 1281W        W10761   9.656   7.817   0.588  0.0584  0.0017 -0.1293
 1282W        W10762   5.348  14.061   0.646  0.0552 -0.1576  0.2047
 1283W        W10763   7.993   1.798   1.678 -0.1592 -0.0832  0.0376
 1284W        W10764   8.655   2.817   6.539  0.0689  0.0826 -0.0416
 1285W        W10765   3.426  13.395   1.313 -0.0865 -0.2463  0.1986
 1286W        W10766   0.251  14.170   7.984  0.1720 -0.0386  0.2098
 1287W        W10767   4.064   3.860   8.896  0.1166 -0.1453  0.2370
 1288W        W10768   7.615  15.077   7.014  0.3558  0.0764  0.1316
 1289W        W10769   1.472   3.487   8.852  0.1193  0.2455  0.2208
 1290W        W10770   5.052   3.323   7.281  0.3564 -0.0504  0.0232
 1291W        W10771  10.563   1.061   1.833  0.1912 -0.3282  0.1487
 1292W        W10772   0.430   0.048   1.136 -0.1869  0.2664  0.0995
 1293W        W10773  14.775  12.542   7.685  0.0804 -0.2393 -0.1318
 1294W        W10774   1.516   3.313   6.792  0.1595 -0.3282 -0.0901
 1295W        W10775   2.906   1.301   2.175 -0.1829  0.3313  0.1159
 1296W        W10776   6.418   0.160   0.625 -0.2864  0.0631  0.4035
 1297W        W10777  15.053  11.634   1.032  0.1603 -0.0285  0.0590
 1298W        W10778   1.499   0.874   2.162 -0.0950 -0.1126  0.0357
 1299W        W10779   4.090   1.264   2.114 -0.3770 -0.1799  0.1531
 1300W        W10780   6.469   3.608   0.411 -0.1365  0.2090  0.3584
 1301W        W10781   2.467   4.179   7.517 -0.3811  0.2497  0.1929
 1302W        W10782   2.046  14.122   0.932  0.0251 -0.1279 -0.2736
 1303W        W10783   8.513   6.114   7.906 -0.0182  0.0795  0.0373
 1304W        W10784   6.583   2.052   9.095 -0.1799 -0.0824 -0.1644
 1305W        W10785   4.594  14.869   1.374  0.0774 -0.2053 -0.0752
 1306W        W10786   9.067   1.938   6.623  0.1108 -0.2702  0.0788
 1307W        W10787   1.413   0.340   7.785  0.1120 -0.0353  0.3273
 1308W        W10788  13.103  14.320   6.652  0.0057  0.2670  0.2982
 1309W        W10789   2.815   0.910   8.550  0.1838 -0.3609  0.1586
 1310W        W10790  15.361  14.476   6.744  0.0649 -0.0603 -0.1949
 1311W        W10791   1.292   7.248   8.077  0.0087 -0.1480 -0.3880
 1312W        W10792   3.286   5.652   1.110  0.0664  0.4629 -0.2210
 1313W        W10793  13.757  11.398   7.249 -0.1179  0.0588  0.0275
 1314W        W10794   4.251   4.647   7.156 -0.2753  0.0840  0.3101
 1315W        W10795  12.796  14.930   2.122 -0.1109 -0.2734  0.0267
 1316W        W10796   9.060   2.184   7.580  0.0635 -0.2348  0.1586
 1317W        W10797  14.891   1.004   2.542 -0.3798  0.2982 -0.2312
 1318W        W10798  10.235  14.362   0.661 -0.1142  0.1390 -0.2009
 1319W        W10799   4.656   4.848   0.559  0.1128  0.0614 -0.0084
 1320W        W10800   7.620  14.135   1.569  0.4010 -0.0090 -0.4152
 1321W        W10801   6.576   0.762   7.774  0.0547 -0.0840  0.1020
 1322W        W10802   5.411   4.372   7.178 -0.1123  0.0317 -0.0300
 1323W        W10803   6.652   2.789   7.223 -0.1776  0.0426  0.1164
 1324W        W10804   6.528  13.396   9.017  0.2288  0.1068  0.2571
 1325W        W10805   3.336  14.810   6.181  0.2612  0.3276  0.2933
 1326W        W10806   7.765  12.667   0.993  0.2148  0.1162  0.0639
 1327W        W10807   3.031   4.293   8.389  0.0812  0.1161  0.1380
 1328W        W10808  13.182   3.632   7.389 -0.2318 -0.1514 -0.1846
 1329W        W10809   6.612   4.535   2.374 -0.3050 -0.1640 -0.0665
 1330W        W10810   9.373   7.528   9.004  0.1257  0.0255 -0.0143
 1331W        W10811  10.583   0.851   8.700 -0.1760 -0.0455  0.0260
 1332W        W10812  12.211   4.398   2.648 -0.2066 -0.0905 -0.1162
 1333W        W10813   1.359   2.056   7.602 -0.0339 -0.0569 -0.0127
 1334W        W10814   2.286  13.064   1.145  0.1169 -0.0324 -0.2240
 1335W        W10815   7.724   3.990   1.534 -0.0325 -0.3709  0.4109
 1336W        W10816   8.049  14.946   0.136  0.1184 -0.0126  0.2425
 1337W        W10817   6.404  15.369   1.958 -0.1359  0.1386 -0.2763
 1338W        W10818   5.448   3.714   1.011 -0.1901 -0.0983  0.0292
 1339W        W10819   3.238  13.500   2.429 -0.0046 -0.1702 -0.0833
 1340W        W10820  13.448   3.048   0.758 -0.0870  0.0138 -0.0425
 1341W        W10821   6.876   1.200   7.065  0.0743  0.0718 -0.0569
 1342W        W10822  12.506   5.675   6.898  0.1583  0.1929 -0.0272
 1343W        W10823   8.935   1.426   8.673 -0.2550 -0.1617 -0.2386
 1344W        W10824   5.305   4.608   1.931 -0.2239  0.0048 -0.1583
 1345W        W10825   9.788   1.305   0.580  0.0627 -0.0958  0.0981
 1346W        W10826   3.439  13.624   7.215  0.4152 -0.1200  0.0894
 1347W        W10827   3.137   6.271   8.700 -0.1684 -0.0640 -0.0614
 1348W        W10828  14.455   1.178   1.596  0.1119  0.1294  0.0446
 1349W        W10829   4.337   3.423   0.230  0.3486  0.0020 -0.0781
 1350W        W10830   4.665   4.652   7.450 -0.3866 -0.0373 -0.2491
 1351W        W10831   5.476   5.718   7.511  0.1155 -0.2603  0.0252
 1352W        W10832   7.139   1.332   0.979  0.0094 -0.2234 -0.0422
 1353W        W10833   9.182   3.846   2.028  0.3196 -0.1205 -0.1470
 1354W        W10834  14.326  15.371   0.906 -0.1263  0.0829 -0.0869
 1355W        W10835   8.212   3.095   0.691  0.0326 -0.2084 -0.1335
 1356W        W10836   5.022   5.842   8.282 -0.0333 -0.1183 -0.0337
 1357W        W10837   3.686   1.686   8.141 -0.0770 -0.3002  0.0950
 1358W        W10838   6.102  14.883   7.837 -0.2999 -0.4094 -0.0139
 1359W        W10839   4.059  15.194   1.039 -0.2584 -0.1618 -0.2946
 1360W        W10840   8.750  14.298   0.503  0.2315  0.0815 -0.0783
 1361W        W10841  11.448   0.125   1.729 -0.0263  0.0273 -0.0432
 1362W        W10842   7.189   4.141   7.951 -0.1500  0.4206  0.3187
 1363W        W10843   6.104  12.228   0.477 -0.0242 -0.0587  0.0018
 1364W        W10844   5.311   0.864   0.400 -0.1341  0.1525  0.0076
 1365W        W10845   5.948  15.231   0.900  0.3577 -0.2238 -0.3196
 1366W        W10846  15.312  15.337   0.540  0.1510 -0.2924  0.2506
 1367W        W10847   3.273   1.325   9.092 -0.2193  0.4903  0.1718
 1368W        W10848   4.420   1.161   1.740  0.3913  0.3214 -0.0977
 1369W        W10849   5.295  14.544   8.266 -0.0170 -0.2413  0.3440
 1370W        W10850   1.689  14.579   8.767  0.1315  0.0570 -0.3279
 1371W        W10851   6.914   5.856   7.511  0.0997  0.1888 -0.0789
 1372W        W10852   2.591   2.480   1.760 -0.2798  0.1699 -0.0278
 1373W        W10853   2.305   3.522   0.090  0.1373  0.0192 -0.0426
 1374W        W10854   5.316  14.009   7.483 -0.0887  0.1548  0.2284
 1375W        W10855   1.493  12.957   0.821  0.0694 -0.0787  0.0318
 1376W        W10856   7.340   0.853   7.924 -0.2140  0.1686 -0.2102
 1377W        W10857   1.795  11.818   8.393  0.1110 -0.2632 -0.3418
 1378W        W10858   4.633   0.415   0.506 -0.0791  0.3378  0.0687
 1379W        W10859   2.898  13.301   7.927  0.2309 -0.1930  0.0532
 1380W        W10860   6.117   2.660   7.777 -0.1044  0.1785  0.1179
 1381W        W10861   4.109   3.870   1.158 -0.2076 -0.0734  0.2503
 1382W        W10862   3.714   1.163   6.886 -0.1527 -0.0048 -0.0552
 1383W        W10863   9.321   3.007   8.467  0.0491 -0.1430 -0.2813
 1384W        W10864   4.671   6.607   8.544  0.1989 -0.0305 -0.1912
 1385W        W10865   8.625   0.122   6.978  0.1593  0.2389  0.2660
 1386W        W10866  15.121   0.209   0.190 -0.2284 -0.0121 -0.1170
 1387W        W10867  11.859   3.166   0.776 -0.2157  0.0034 -0.0424
 1388W        W10868   6.373   2.436   7.394 -0.1594  0.1080 -0.1789
 1389W        W10869  11.526  12.877   0.334  0.0270 -0.0531 -0.1209
 1390W        W10870   3.452   2.674   2.496  0.4512 -0.3570 -0.0729
 1391W        W10871   5.855  13.297   0.565  0.0300 -0.1850 -0.1841
 1392W        W10872   4.127   5.491   1.978  0.2914 -0.1510  0.0025
 1393W        W10873   4.851  12.485   2.379 -0.2014  0.0781  0.2209
 1394W        W10874   3.676   3.108   6.977  0.0465  0.0356 -0.3978
 1395W        W10875   7.784   3.180   2.546 -0.1106 -0.3124 -0.1165
 1396W        W10876  10.677  13.119   7.107  0.1388  0.0927 -0.1992
 1397W        W10877  14.970   1.970   8.147 -0.3062  0.3289 -0.0810
 1398W        W10878   6.113   2.740   1.341 -0.1117  0.1238 -0.0322
 1399W        W10879   1.978  13.460   8.788 -0.1497  0.0570  0.0242
 1400W        W10880   4.288   7.556   7.787 -0.1575  0.1809  0.3468
 1401W        W10881   6.308  14.391   6.497 -0.2210 -0.0159 -0.2565
 1402W        W10882   4.930   0.404   1.555 -0.0188 -0.0087 -0.0094
 1403W        W10883   2.748   9.392   2.364  0.2186  0.1763  0.3279
 1404W        W10884   4.408  13.670   7.211 -0.0871  0.2544  0.1112
 1405W        W10885   9.622   8.541   1.743  0.0136  0.1288 -0.3329
 1406W        W10886   6.189   4.732   7.251 -0.0891  0.0050  0.0974
 1407W        W10887   5.730   4.530   1.049 -0.0403  0.2796  0.0763
 1408W        W10888   7.557   1.898   1.959 -0.1833 -0.0895  0.0618
 1409W        W10889   1.361   2.319   8.084  0.0157 -0.2436  0.0441
 1410W        W10890   5.678   1.475   1.831  0.1460  0.0355 -0.2624
 1411W        W10891   9.807  15.294   1.639  0.1520 -0.2706  0.1080
 1412W        W10892   4.992   6.413   0.763  0.1036 -0.0429 -0.0535
 1413W        W10893  14.838  15.288   8.986  0.1628 -0.0881 -0.1547
 1414W        W10894   6.319  13.082   2.243  0.0680  0.0227 -0.0718
 1415W        W10895   5.966   5.082   2.194  0.0198  0.1456 -0.0018
 1416W        W10896   1.604   1.814   2.469  0.1893 -0.0248  0.0954
 1417W        W10897   4.920   3.660   7.659 -0.1170  0.0930  0.0729
 1418W        W10898   2.252   4.196   7.027  0.0790  0.1288  0.2056
 1419W        W10899   0.975   1.302   8.496 -0.0951 -0.2178  0.0407
 1420W        W10900   9.952   7.324   1.879 -0.2198  0.0413 -0.1278
 1421W        W10901  10.452   3.827   2.022 -0.2843  0.0879  0.1435
 1422W        W10902   7.997   0.405   0.490 -0.3479  0.0565  0.0099
 1423W        W10903  15.017   4.341   8.545 -0.1923 -0.1833 -0.5475
 1424W        W10904   9.735   5.612   8.422 -0.0100  0.1112 -0.0145
 1425W        W10905   5.231   1.436   1.556 -0.0200  0.0549 -0.0511
 1426W        W10906   5.713   7.290   8.491 -0.0507 -0.1107  0.1047
 1427W        W10907   7.228  12.043   1.204 -0.0575  0.0164 -0.2799
 1428W        W10908   3.875   3.721   0.658 -0.0615  0.1308 -0.1856
 1429W        W10909   7.221  14.993   2.620  0.1124  0.0571  0.1061
 1430W        W10910   7.630   7.561   7.346  0.0137  0.0120 -0.0810
 1431W        W10911   9.224  12.843   0.745 -0.2556  0.1810 -0.0054
 1432W        W10912   2.948   8.386   6.777 -0.1578  0.0699 -0.0144
 1433W        W10913  14.592  15.242   8.186 -0.4019  0.1696  0.0196
 1434W        W10914   8.013   3.900   7.592  0.2983 -0.2920 -0.0929
 1435W        W10915  10.386   4.925   8.758 -0.4031  0.0098 -0.3862
 1436W        W10916   6.581  10.949   7.424 -0.1573 -0.0364 -0.0714
 1437W        W10917  10.851   0.003   7.575  0.0758  0.1307 -0.1317
 1438W        W10918  10.947   5.365   0.294  0.2278 -0.0454  0.1878
 1439W        W10919   7.098   3.923   8.809 -0.2196 -0.2333 -0.1770
 1440W        W10920   1.098   1.148   0.379  0.0180 -0.2371  0.1462
 1441W        W10921   7.347   0.857   1.914  0.1517 -0.1816  0.2338
 1442W        W10922   3.068   3.650   8.618  0.2071  0.1135  0.0455
 1443W        W10923   7.853   5.294   1.332  0.0424  0.1193 -0.3233
 1444W        W10924   8.593   6.474   0.169  0.2199 -0.2066  0.3404
 1445W        W10925  10.836   3.280   1.118 -0.0801 -0.1599 -0.2027
 1446W        W10926   7.759  14.995   1.397 -0.1070  0.0518 -0.0570
 1447W        W10927   4.854   1.376   0.891 -0.2223  0.0648  0.0200
 1448W        W10928   9.271  15.224   1.437 -0.0302 -0.0110  0.1424
 1449W        W10929   7.358   5.790   1.825 -0.2148 -0.1197  0.0878
 1450W        W10930   1.250   2.194   2.336  0.1153 -0.0396  0.0641
 1451W        W10931  10.856   1.251   8.724 -0.1057 -0.0916  0.0878
 1452W        W10932   8.365   4.082   8.282 -0.1581  0.1702 -0.1205
 1453W        W10933  10.183   2.225   7.657  0.0543 -0.0732  0.2036
 1454W        W10934  12.861  11.852   2.106 -0.0972  0.1126 -0.3116
 1455W        W10935   5.564  14.273   7.865 -0.0675  0.2042 -0.0397
 1456W        W10936   7.373   1.846   7.336  0.0678 -0.0167 -0.1875
 1457W        W10937   8.927   6.095   8.224  0.1278 -0.0618 -0.0898
 1458W        W10938   7.790  12.263   1.326 -0.0326 -0.1855  0.0748
 1459W        W10939  13.332   2.647   1.044  0.1269  0.2294 -0.3841
 1460W        W10940  10.943   0.994   0.606 -0.1778 -0.0749 -0.1754
 1461W        W10941   4.321  11.628   0.134  0.1168  0.1367  0.0670
 1462W        W10942   4.117   0.841   6.886  0.0760 -0.0934  0.0428
 1463W        W10943   4.597   0.171   7.668 -0.2759  0.1492 -0.2303
 1464W        W10944   5.403  14.375   7.102  0.0210  0.1198 -0.1110
 1465W        W10945  10.393  13.523   1.874  0.1430 -0.3013  0.1796
 1466W        W10946  12.387   0.437   1.739 -0.1868  0.0693  0.3270
 1467W        W10947  11.886   1.821   1.335  0.0330  0.1500  0.1232
 1468W        W10948   6.096  12.260   7.630  0.0205 -0.0465 -0.1598
 1469W        W10949  10.060   1.501   8.059 -0.1274  0.0966  0.1118
 1470W        W10950  10.786   6.660   8.673  0.0896 -0.0261  0.0085
 1471W        W10951  12.525  12.682   8.536  0.0070  0.1192 -0.3846
 1472W        W10952   2.117  15.308   0.701  0.1917 -0.2985  0.1741
 1473W        W10953   8.425  14.881   7.985  0.2431  0.0303  0.0320
 1474W        W10954   5.564   7.140   1.298  0.2927 -0.1136  0.0071
 1475W        W10955  14.244   1.439   2.054 -0.1994  0.1423  0.2991
 1476W        W10956   9.236   6.410   8.043 -0.0221 -0.1606 -0.0597
 1477W        W10957  11.875  12.326   0.446  0.2193  0.0061 -0.1608
 1478W        W10958   6.272   0.261   0.134 -0.0521  0.0622  0.0060
 1479W        W10959  15.287   1.249   8.013 -0.0489  0.0220  0.2836
 1480W        W10960  14.739   4.119   0.546  0.3191  0.1880  0.0415
 1481W        W10961   6.069   9.621   8.803 -0.4891  0.3964 -0.0712
 1482W        W10962  10.137   1.529   1.279 -0.4815  0.3102  0.0245
 1483W        W10963   8.545   2.308   7.780  0.0477 -0.1737  0.3295
 1484W        W10964   8.395   4.975   6.726 -0.2168 -0.2312  0.2209
 1485W        W10965   5.272   5.640   6.992 -0.2812 -0.0009 -0.0807
 1486W        W10966   5.908   2.848   8.180  0.3741  0.1005 -0.0033
 1487W        W10967  12.703   0.775   2.470 -0.5608 -0.2274  0.0018
 1488W        W10968  11.361   4.504   2.149  0.0102  0.2180  0.1881
 1489W        W10969  12.047   5.954   8.765 -0.0142 -0.0937  0.2393
 1490W        W10970   4.736   1.881   7.228 -0.0833 -0.0705  0.1183
 1491W        W10971  12.316  14.682   2.330 -0.1525 -0.3502 -0.1368
 1492W        W10972  10.108   2.932   8.372 -0.2007 -0.4372  0.0716
 1493W        W10973  14.899   7.138   6.378 -0.0336 -0.1221 -0.0187
 1494W        W10974   5.192   1.032   8.941  0.1302 -0.0251 -0.0690
 1495W        W10975  12.809   4.627   8.150  0.1183 -0.1486  0.1297
 1496W        W10976   5.046   1.212   8.524 -0.0610  0.1778  0.0208
 1497W        W10977   5.760  13.771   6.626 -0.0751 -0.5766 -0.0004
 1498W        W10978  13.111   3.253   0.250  0.1753  0.2080  0.4976
 1499W        W10979  12.346   7.648   0.601 -0.1842  0.1577 -0.2196
 1500W        W10980  10.805   4.190   7.248  0.0705  0.0552  0.1710
 1501W        W10981  13.861  14.695   1.096 -0.1559 -0.1391 -0.2744
 1502W        W10982  14.970   3.859   1.484 -0.1968 -0.1504  0.3025
 1503W        W10983  12.597  13.322   7.659 -0.1017  0.1619  0.2445
 1504W        W10984  10.723   1.481   0.576 -0.4762 -0.1485 -0.0212
 1505W        W10985   6.350  15.100   0.679 -0.0872  0.1254  0.2878
 1506W        W10986  10.730  13.796   2.108 -0.0028  0.1312 -0.1757
 1507W        W10987   8.339   5.659   8.793 -0.2521 -0.0342  0.2628
 1508W        W10988   3.505   0.911   8.827  0.0281  0.3656 -0.1509
 1509W        W10989   2.997  12.390   8.438 -0.2262  0.1602 -0.2073
 1510W        W10990   6.961   0.889   8.214  0.0576  0.1402  0.1317
 1511W        W10991  12.309   3.193   7.621  0.0785  0.1368 -0.2823
 1512W        W10992   8.806   1.746   1.343  0.2180 -0.0446  0.1239
 1513W        W10993   8.870   2.561   8.556  0.1982  0.0133  0.0327
 1514W        W10994  12.884   2.299   8.784 -0.1656 -0.0235 -0.1175
 1515W        W10995   6.054   0.289   0.919  0.0575  0.4572  0.3347
 1516W        W10996  11.261  11.820   9.005 -0.0209  0.0298 -0.2447
 1517W        W10997   5.549  14.155   8.431 -0.1156 -0.1311  0.3686
 1518W        W10998  14.186   6.195   8.258  0.0910 -0.1130  0.0486
 1519W        W10999  13.430   2.114   8.151 -0.1333 -0.0471  0.1412
 1520W        W11000   6.750   7.322   7.888 -0.3975 -0.0651  0.0930
 1521W        W11001   9.687  14.582   3.008 -0.0171  0.0699 -0.1065
 1522W        W11002   1.212  14.200   1.237 -0.1619  0.0942  0.1713
 1523W        W11003   8.787  13.886   6.969 -0.2624 -0.1893  0.5787
 1524W        W11004   4.666  12.455   7.788  0.3412 -0.2072 -0.1465
 1525W        W11005   9.451   1.254   1.062  0.1983 -0.0043  0.2418
 1526W        W11006  12.617  13.652   2.338  0.0995 -0.0410 -0.1915
 1527W        W11007  11.675  14.642   1.734 -0.1748  0.1948  0.0581
 1528W        W11008   3.836   1.984   8.594  0.2522 -0.1998 -0.0534
 1529W        W11009  13.436   1.704   7.718  0.0911  0.0384 -0.1956
 1530W        W11010   6.851  15.306   0.585 -0.0019  0.1077  0.2243
 1531W        W11011   6.938   4.639   7.360 -0.1156 -0.0971 -0.1311
 1532W        W11012   7.966   2.595   7.237  0.2269 -0.1121 -0.1146
 1533W        W11013   9.549   0.211   1.446  0.2792  0.3982 -0.3446
 1534W        W11014  12.082   7.116   8.881 -0.2187 -0.2737  0.0514
 1535W        W11015   8.339  15.395   7.951  0.2250 -0.2159 -0.1154
 1536W        W11016   8.024   2.297   0.872  0.0429 -0.2760 -0.0897
 1537W        W11017   1.279   5.038   7.959 -0.1714  0.1329 -0.2716
 1538W        W11018   9.583   1.568   7.801  0.0162 -0.1812 -0.1337
 1539W        W11019   0.942   5.127   2.270 -0.0432  0.1697 -0.0023
 1540W        W11020  10.160  14.997   1.793 -0.0754  0.2446 -0.3275
 1541W        W11021   8.961   1.300   0.814  0.3041  0.2930  0.0089
 1542W        W11022  12.031   4.852   1.832 -0.0893  0.0850 -0.1240
 1543W        W11023   4.345   4.941   7.779  0.4733 -0.0817 -0.2706
 1544W        W11024   3.827   4.658   2.009 -0.4264 -0.1215 -0.2401
 1545W        W11025   8.238   0.136   7.394  0.2148 -0.0772  0.1901
 1546W        W11026   8.559   4.674   7.864 -0.0589  0.2414  0.0544
 1547W        W11027   6.468   0.794   1.566 -0.1087  0.0887 -0.0021
 1548W        W11028  11.895   0.248   2.040  0.0216 -0.1127 -0.4236
 1549W        W11029  10.748   0.727   1.529  0.2380  0.1032  0.1312
 1550W        W11030   3.595  14.500   6.777 -0.0223 -0.3643 -0.0577
 1551W        W11031   5.870   2.351   8.216  0.2018 -0.0871 -0.2617
 1552W        W11032  14.383   6.923   6.584  0.1407  0.1608  0.0829
 1553W        W11033  12.552   2.001   1.836  0.1175  0.1091  0.1307
 1554W        W11034  13.456  12.454   0.731 -0.2779  0.0074  0.0972
 1555W        W11035   5.093   4.563   0.749 -0.0084  0.0014 -0.0517
 1556W        W11036  11.398  13.585   7.425 -0.1095 -0.0105 -0.0997
 1557W        W11037   9.000  12.351   0.906  0.0929  0.1543 -0.1185
 1558W        W11038   2.572  13.537   8.219 -0.1409  0.0488  0.2958
 1559W        W11039  11.558   5.187   1.706  0.2505  0.0110 -0.0777
 1560W        W11040   9.105   1.075   9.029 -0.0611  0.1319  0.1899
 1561W        W11041  12.638   0.807   1.856  0.0092 -0.0418  0.1006
 1562W        W11042   7.365   5.404   2.282  0.0815 -0.0764  0.2287
 1563W        W11043  12.005  13.032   0.327 -0.0628 -0.0228  0.1094
 1564W        W11044  12.700   3.705   8.313 -0.2151  0.2139  0.1129
 1565W        W11045   5.364   0.155   6.674 -0.1283  0.2115 -0.0296
 1566W        W11046  10.240   1.146   7.196 -0.1167  0.0577  0.0659
 1567W        W11047   6.098  10.228   7.322  0.2141  0.4142 -0.0669
 1568W        W11048  10.598   1.972   0.766  0.1869 -0.0535  0.0488
 1569W        W11049   9.795   0.171   1.017 -0.1388 -0.1552  0.2392
 1570W        W11050  15.179   0.981   2.091 -0.0724  0.0652  0.0909
 1571W        W11051   2.943  13.717   8.540 -0.1707 -0.0685 -0.2080
 1572W        W11052  11.373  10.875   7.908 -0.4356  0.3288 -0.1250
 1573W        W11053  11.521   3.188   7.269  0.3569 -0.1115 -0.2466
 1574W        W11054   8.082   3.822   1.209 -0.2368  0.0674 -0.1040
 1575W        W11055   7.173   6.014   6.597  0.0930 -0.1893  0.1904
 1576W        W11056   4.673   6.001   0.212 -0.2364  0.3710 -0.0381
 1577W        W11057  14.121   5.020   0.337 -0.3843 -0.3054 -0.0864
 1578W        W11058  11.989  10.943   0.813 -0.1013  0.0512  0.1752
 1579W        W11059  10.849   7.718   2.891  0.2422  0.1153  0.0892
 1580W        W11060  12.155   1.891   8.672  0.1262 -0.2157 -0.0145
 1581W        W11061   3.234   4.387   1.475  0.1624 -0.0321  0.2107
 1582W        W11062   9.449  12.985   6.279 -0.0683 -0.0922 -0.0626
 1583W        W11063   6.096   0.715   6.828  0.0654 -0.2049 -0.2477
 1584W        W11064  10.899  12.585   7.118  0.0099  0.1114  0.1540
 1585W        W11065   6.201  13.212   1.328 -0.1832 -0.1757 -0.2458
 1586W        W11066   4.642  11.051   7.667 -0.1003  0.0204  0.1356
 1587W        W11067   8.113   8.379   8.741  0.0590  0.0211  0.1485
 1588W        W11068   4.073   3.288   7.253 -0.2875 -0.1204  0.1735
 1589W        W11069   5.510   1.770   1.392 -0.0047  0.0509  0.0669
 1590W        W11070  10.720  14.673   1.097  0.1654  0.2317  0.0196
 1591W        W11071   3.816  10.391   8.448  0.0438  0.2573  0.1896
 1592W        W11072   6.152   0.831   0.101 -0.2009  0.2352 -0.2125
 1593W        W11073  15.431  15.007   8.395  0.0277 -0.1041  0.3291
 1594W        W11074  11.437   2.031   1.097  0.0662 -0.1479  0.0019
 1595W        W11075  11.429   6.172   7.121  0.1045  0.1776 -0.0622
 1596W        W11076   9.220   5.807   7.864 -0.0581  0.1432  0.1744
 1597W        W11077  10.766   3.712   0.904  0.0932 -0.0792  0.0510
 1598W        W11078  11.653  13.882   2.071 -0.1298 -0.0421 -0.2840
 1599W        W11079  13.514  10.034   2.011 -0.4774  0.1960  0.0416
 1600W        W11080  13.261   7.101   7.411  0.0764 -0.2308 -0.2426
 1601W        W11081   7.103   1.764   8.304  0.0718  0.1205  0.0367
 1602W        W11082   7.403   4.462   0.214  0.2547  0.0365  0.2889
 1603W        W11083   9.574  10.825   8.158 -0.0812  0.2747 -0.0262
 1604W        W11084   4.489   0.165   8.489 -0.2105  0.0705  0.0049
 1605W        W11085   7.825  12.532   7.265 -0.2821  0.0274  0.1472
 1606W        W11086   9.616   3.460   7.853 -0.1687 -0.1247  0.0728
 1607W        W11087   7.817   1.550   6.639  0.2801  0.1253  0.0331
 1608W        W11088   5.220   0.151   1.194 -0.3810  0.1446  0.1548
 1609W        W11089   6.613  14.528   8.525  0.1485 -0.4063  0.1169
 1610W        W11090  12.760  14.579   8.388  0.3757  0.1561 -0.2525
 1611W        W11091   6.558  14.473   1.890 -0.2949  0.2848 -0.1450
 1612W        W11092   7.541   5.412   0.364  0.0019  0.0524 -0.3092
 1613W        W11093   8.852   4.854   8.929 -0.4053 -0.0624 -0.2080
 1614W        W11094   5.647   4.622   8.088  0.1351  0.0166  0.2706
 1615W        W11095   8.159  13.257   7.232 -0.1176 -0.0771  0.1279
 1616W        W11096   7.825   5.960   1.257  0.1047 -0.3045 -0.1081
 1617W        W11097   8.786   0.124   7.424 -0.1860  0.1012 -0.4356
 1618W        W11098   7.335  14.696   8.261  0.0952  0.1374  0.1328
 1619W        W11099   8.055   7.084   7.921 -0.0596 -0.2050  0.1406
 1620W        W11100   6.102   3.513   7.412 -0.0196 -0.0713 -0.0655
 1621W        W11101  10.192   0.726   7.490 -0.0329  0.1011  0.1011
 1622W        W11102   7.148  14.132   9.002  0.0283 -0.0561 -0.0977
 1623W        W11103  13.611  14.256   7.998  0.1011 -0.1707  0.1580
 1624W        W11104   7.352   9.444   7.405  0.1232  0.1416 -0.3635
 1625W        W11105  13.938  12.992   7.696 -0.0652  0.2401 -0.0532
 1626W        W11106  10.324   6.796   8.423 -0.0078 -0.1762  0.2680
 1627W        W11107  15.201  14.639   2.076  0.0258  0.3257  0.1388
 1628W        W11108   8.891   3.159   6.220 -0.3596 -0.0376 -0.1685
 1629W        W11109   0.610  12.498   8.382  0.1394 -0.1198  0.1877
 1630W        W11110   0.033  12.251   1.649  0.3547  0.1036 -0.0453
 1631W        W11111  12.181   2.816   2.079  0.1011  0.2014  0.2970
 1632W        W11112   6.688   3.410   8.135  0.0003 -0.0303  0.0728
 1633W        W11113  10.097   4.410   0.877  0.0440 -0.0554 -0.3325
 1634W        W11114   9.251   2.729   8.874 -0.0491  0.2949  0.0834
 1635W        W11115  10.355  14.929   8.220  0.1460 -0.0176 -0.2822
 1636W        W11116   9.924  12.544   7.403  0.2964  0.0110  0.0349
 1637W        W11117   9.859  12.980   8.211 -0.1691 -0.1762 -0.4376
 1638W        W11118   6.516   0.682   7.250 -0.3450 -0.1926 -0.0653
 1639W        W11119   2.748   6.739   1.059 -0.0445 -0.2073 -0.1386
 1640W        W11120   9.225   4.789   0.525 -0.1006  0.1389 -0.0166
 1641W        W11121  13.853  13.250   0.297  0.0216  0.2005 -0.3662
 1642W        W11122  12.053   8.002   7.276 -0.1547  0.0486  0.0980
 1643W        W11123  14.761  13.663   0.036 -0.0780 -0.2491  0.1554
 1644W        W11124   6.992   5.444   1.940 -0.0170  0.0796  0.0576
 1645W        W11125  13.522   0.061   7.701 -0.1629 -0.2517  0.0107
 1646W        W11126   8.852   5.533   2.109 -0.0782 -0.2916  0.2419
 1647W        W11127   7.768   1.280   9.056 -0.1314 -0.0530  0.2233
 1648W        W11128  13.052  15.275   6.839  0.0604  0.1829  0.2507
 1649W        W11129  14.239   2.504   8.823 -0.1201  0.2279 -0.0964
 1650W        W11130   8.932  14.595   9.038  0.0825 -0.1457 -0.1134
 1651W        W11131   7.505   0.569   2.330  0.0181 -0.2914  0.2697
 1652W        W11132   9.587   2.132   0.671 -0.0613  0.2000 -0.2255
 1653W        W11133  10.362   2.839   6.886  0.0351 -0.1137 -0.2150
 1654W        W11134   0.251   6.813   1.861 -0.5074 -0.3275 -0.0151
 1655W        W11135  11.133  13.873   7.710 -0.0525 -0.2156 -0.2665
 1656W        W11136  12.155   1.059   8.363  0.0252  0.1151 -0.0057
 1657W        W11137   5.458  15.115   7.601 -0.1840 -0.0261 -0.1611
 1658W        W11138  15.315   1.264   2.595  0.3725  0.1388 -0.2584
 1659W        W11139  12.281  14.482   8.559  0.2255  0.1297  0.0733
 1660W        W11140   2.154   6.352   9.051  0.2960 -0.3435 -0.0514
 1661W        W11141  15.358   2.923   1.272  0.0107 -0.1472 -0.1040
 1662W        W11142   1.633   0.586   8.909  0.2234 -0.1079 -0.1384
 1663W        W11143  14.523  11.071   0.658 -0.2488 -0.0752  0.3574
 1664W        W11144  14.085   4.194   0.119 -0.0592 -0.3521 -0.0801
 1665W        W11145  11.816   2.704   0.007  0.0642 -0.2051 -0.2873
 1666W        W11146  14.923   1.081   1.202 -0.1499  0.2471 -0.3799
 1667W        W11147  10.540   0.931   6.699  0.2813  0.0083  0.3607
 1668W        W11148   2.000   6.551   1.381  0.1908 -0.0305  0.1746
 1669W        W11149  11.261   8.629   7.200 -0.3573 -0.3775  0.0887
 1670W        W11150  11.193  11.290   1.361 -0.2701 -0.0837 -0.3167
 1671W        W11151   7.096   3.100   7.128  0.1447 -0.1571  0.1339
 1672W        W11152   6.524   0.604   0.502  0.4532 -0.1254 -0.0664
 1673W        W11153   8.748  11.283   7.957 -0.3453 -0.0142 -0.0094
 1674W        W11154  13.422   3.080   6.676 -0.2145  0.1254 -0.0948
 1675W        W11155  11.639  10.066   0.163  0.4447 -0.0177 -0.0138
 1676W        W11156   9.315   2.279   2.784 -0.2573 -0.1931 -0.2087
 1677W        W11157   6.833   2.105   8.688 -0.1967 -0.1331 -0.1129
 1678W        W11158   0.399   7.730   1.410 -0.2983 -0.0615 -0.3510
 1679W        W11159   0.505   3.502   1.787 -0.2489 -0.1320 -0.5915
 1680W        W11160   2.264   2.489   1.028  0.4297  0.1582 -0.0310
 1681W        W11161  14.335  13.297   7.462 -0.1082 -0.0195  0.1335
 1682W        W11162  11.591   8.169   7.726 -0.2381 -0.1141 -0.0107
 1683W        W11163  12.832   0.131   0.079  0.1367  0.0908 -0.0561
 1684W        W11164  13.419   5.598   7.529 -0.0003  0.3034 -0.1387
 1685W        W11165   2.615   4.592   0.944  0.0354  0.1499  0.3576
 1686W        W11166  11.179   5.030   8.621  0.2273 -0.1349 -0.3320
 1687W        W11167  12.508   4.781   6.927  0.0377 -0.3774  0.2379
 1688W        W11168  13.985   4.951   1.151  0.1712 -0.2755  0.1351
 1689W        W11169   9.811   9.751   2.276 -0.1691 -0.2481 -0.2356
 1690W        W11170   3.542   0.136   1.623  0.0984  0.2814  0.4908
 1691W        W11171   8.882   0.945   7.772 -0.1856  0.0869 -0.3031
 1692W        W11172   0.761   2.402   8.857  0.0086 -0.1743 -0.1343
 1693W        W11173  14.910  14.283   0.999 -0.1032 -0.2214 -0.1671
 1694W        W11174   6.187   5.751   6.898  0.0498  0.2427 -0.0904
 1695W        W11175  13.271  14.494   8.851 -0.0917  0.0324 -0.0664
 1696W        W11176  12.911  12.330   2.217  0.0214 -0.2280  0.2457
 1697W        W11177   0.630   0.679   1.529 -0.2149  0.1568 -0.0472
 1698W        W11178  10.067   9.488   8.285 -0.4270  0.1991 -0.1698
 1699W        W11179  13.365  15.233   6.422 -0.0310  0.3732  0.3380
 1700W        W11180  10.691  14.225   8.720  0.0370  0.2530  0.3643
 1701W        W11181   8.651   1.182   8.312  0.0911  0.3680 -0.2951
 1702W        W11182  12.204   3.684   8.445  0.0449  0.1967  0.3465
 1703W        W11183   9.361   0.190   7.493  0.0601 -0.2355 -0.1534
 1704W        W11184  14.580   2.840   1.827 -0.2355  0.2214 -0.1009
 1705W        W11185  12.861   0.645   0.247 -0.0118  0.1120  0.2153
 1706W        W11186  12.068   6.642   7.558 -0.0119  0.5007 -0.0865
 1707W        W11187   1.341   3.130   2.054 -0.1439 -0.3353  0.4202
 1708W        W11188  15.395  14.995   2.970 -0.0542  0.0228 -0.0838
 1709W        W11189   7.393  14.757   0.906 -0.2103  0.4637  0.0810
 1710W        W11190  13.468   1.554   8.153  0.0083 -0.1818 -0.1101
 1711W        W11191  13.001  12.550   7.722 -0.1616  0.0554  0.0659
 1712W        W11192  10.126   3.464   6.975 -0.1010  0.2916  0.0417
 1713W        W11193  15.054  13.128   7.328 -0.1818  0.2031  0.1224
 1714W        W11194  13.064   0.344   0.668 -0.0438 -0.1196  0.1112
 1715W        W11195  11.739   3.468   6.683  0.1996 -0.1266  0.1118
 1716W        W11196   8.846  13.268   9.000  0.1766 -0.1425 -0.4065
 1717W        W11197   7.789  13.443   6.935 -0.1693  0.2143  0.1236
 1718W        W11198  10.786   2.952   1.954 -0.2274 -0.1623  0.3985
 1719W        W11199   8.306   0.554   1.678  0.0508 -0.2562 -0.1455
 1720W        W11200   0.129   1.111   8.458 -0.0030 -0.1346 -0.3894
 1721W        W11201  14.101   3.178   8.652  0.3259 -0.2424  0.3195
 1722W        W11202   0.328   5.595   0.008  0.1947 -0.0602  0.4845
 1723W        W11203  13.250   9.781   7.741  0.2177  0.2891  0.1878
 1724W        W11204   0.851   3.620   2.180 -0.0175  0.0388 -0.2213
 1725W        W11205   9.592   6.446   0.357  0.2611 -0.0451 -0.2155
 1726W        W11206   9.701  14.808   1.499  0.0494  0.1831 -0.0144
 1727W        W11207  14.156  13.613   7.085  0.0630 -0.0045 -0.2704
 1728W        W11208   4.437  14.969   0.855 -0.2292  0.0601  0.0205
 1729W        W11209  12.095   4.731   0.519 -0.0131  0.3042  0.1306
 1730W        W11210  11.158  10.431   1.882  0.0165 -0.2345  0.0920
 1731W        W11211  11.365   2.227   2.077 -0.0370 -0.0350  0.1958
 1732W        W11212   9.656  13.321   6.998  0.2139 -0.2364  0.0632
 1733W        W11213  12.950  13.115   0.318 -0.1114 -0.2118  0.0478
 1734W        W11214   5.035   2.873   6.839  0.1866 -0.0466  0.3596
 1735W        W11215   8.311   6.789   7.539  0.4576  0.2698  0.0833
 1736W        W11216   0.661   4.747   7.163 -0.1199 -0.0508 -0.0348
 1737W        W11217   1.030  13.271   7.394 -0.1955  0.0076 -0.1996
 1738W        W11218  14.586   3.787   7.887  0.0506  0.0999  0.0665
 1739W        W11219  11.405   7.248   2.254  0.2020  0.0691 -0.0874
 1740W        W11220  12.068   6.160   7.720 -0.0041 -0.0231 -0.0381
 1741W        W11221  10.473   5.924   8.923 -0.3293  0.2374 -0.1617
 1742W        W11222   8.274  14.164   6.119 -0.2023 -0.2581  0.0050
 1743W        W11223  14.239   3.449   1.088  0.0922  0.2134  0.2404
 1744W        W11224   2.033   4.425   8.407  0.1841 -0.0331  0.2260
 1745W        W11225   2.223   2.340   6.972  0.2846  0.1731 -0.0154
 1746W        W11226  12.707  14.145   7.022 -0.1318 -0.2229 -0.0743
 1747W        W11227  10.391   4.062   0.030 -0.0247 -0.0907  0.1267
 1748W        W11228  11.601   3.515   0.483  0.1646 -0.3308  0.1851
 1749W        W11229   6.504   0.785   8.503 -0.4830 -0.4210  0.0972
 1750W        W11230   7.424  11.233   0.405 -0.1299  0.2569  0.2845
 1751W        W11231  12.821   2.444   2.006  0.0525  0.5045  0.0022
 1752W        W11232  11.025   1.870   1.437  0.2621 -0.1510  0.1108
 1753W        W11233   6.250  12.203   1.478 -0.3800 -0.2081  0.2117
 1754W        W11234  14.138   5.133   7.215 -0.0763 -0.1341  0.0622
 1755W        W11235  13.934  13.922   8.205  0.3289  0.1622 -0.2724
 1756W        W11236   9.279   5.938   1.780  0.3523  0.3261 -0.0421
 1757W        W11237   7.812   9.634   7.446 -0.4178 -0.1933  0.0107
 1758W        W11238  15.053   3.368   1.355 -0.0845 -0.0289 -0.0310
 1759W        W11239  10.941   1.734   2.458 -0.1030 -0.0147 -0.0933
 1760W        W11240  15.189   1.774   1.703  0.0377 -0.0604 -0.1447
 1761W        W11241   0.288   0.985   1.809 -0.0316  0.2463  0.0763
 1762W        W11242   9.217   3.031   7.971 -0.0503 -0.0362  0.0464
 1763W        W11243   8.914  15.401   8.789  0.0125  0.0004 -0.2607
 1764W        W11244   8.428   7.637   1.179 -0.0299  0.0390  0.2312
 1765W        W11245  15.068   5.028   7.262 -0.3183 -0.1336 -0.0112
 1766W        W11246   0.363  12.992   0.047 -0.1428 -0.1978 -0.1970
 1767W        W11247  13.296   0.782   0.010 -0.0860  0.6283 -0.1122
 1768W        W11248  12.732   9.523   1.533  0.0762 -0.1129  0.1111
 1769W        W11249  11.517  15.263   8.249  0.0411  0.1957  0.2307
 1770W        W11250  13.476   6.794   8.301  0.0927 -0.0981 -0.1280
 1771W        W11251  14.192   0.413   8.906  0.1333  0.2614  0.0748
 1772W        W11252  11.076  13.638   8.126 -0.3205  0.0070  0.0305
 1773W        W11253  13.850  15.095   2.330  0.0717  0.1678  0.4118
 1774W        W11254   0.973  12.154   8.127  0.0351 -0.2406  0.3554
 1775W        W11255  10.988   2.294   0.844  0.0767 -0.1521  0.1104
 1776W        W11256   7.828   2.459   0.020 -0.2154  0.1329  0.0506
 1777W        W11257   2.868  14.886   6.929 -0.0647 -0.1648  0.0087
 1778W        W11258   5.423  10.602   8.856  0.0189 -0.1890  0.4600
 1779W        W11259  12.007   5.665   2.360  0.0723 -0.0030 -0.0780
 1780W        W11260   6.580   5.585   1.141 -0.4224  0.4280 -0.0171
 1781W        W11261  14.759  13.353   1.935 -0.0149  0.1605 -0.0876
 1782W        W11262   0.784  11.028   1.694  0.1869 -0.0650 -0.1992
 1783W        W11263  11.118  12.168   8.641  0.1539 -0.4630 -0.2853
 1784W        W11264  11.589   1.768   8.179  0.0935  0.3634 -0.0328
 1785W        W11265  13.373   4.582   6.497 -0.2205 -0.1285  0.0248
 1786W        W11266  11.462   1.126   8.846  0.1537 -0.2138  0.3381
 1787W        W11267  13.023  15.313   1.904 -0.0941  0.2532  0.1889
 1788W        W11268  10.807  15.414   9.029  0.2605 -0.2166 -0.3166
 1789W        W11269  12.249   3.525   6.771  0.1634  0.3268 -0.0778
 1790W        W11270   2.902  12.337   0.285 -0.1427 -0.0621 -0.2675
 1791W        W11271  13.019  14.308   0.661  0.0271 -0.1078  0.0882
 1792W        W11272  11.944   0.942   8.848 -0.0857  0.0682  0.1580
 1793W        W11273   7.058  12.830   1.565  0.1141  0.0963 -0.1505
 1794W        W11274  10.029  11.872   9.081  0.0882 -0.1388 -0.0001
 1795W        W11275   0.417   4.385   1.769  0.1184 -0.1472 -0.2732
 1796W        W11276  12.785   0.911   8.374  0.3024 -0.0733  0.2433
 1797W        W11277  10.204  13.383   1.405 -0.0090  0.2171 -0.4182
 1798W        W11278   8.755   2.473   0.361  0.2876 -0.1049  0.1022
 1799W        W11279  12.834   1.401   8.554 -0.2359  0.2571 -0.3183
 1800W        W11280  10.702   0.380   7.888 -0.1038 -0.1616  0.2422
 1801W        W11281   2.107   0.017   1.454  0.0276 -0.1448  0.0333
 1802W        W11282  14.216   0.714   7.800 -0.0095  0.3431  0.0483
 1803W        W11283   6.322  14.935   8.424 -0.5817 -0.2312 -0.0300
 1804W        W11284  10.000  12.970   1.090  0.1496 -0.0577  0.0867
 1805W        W11285   2.226   5.879   1.891 -0.1041 -0.0646 -0.1611
 1806W        W11286   0.537   3.674   8.986 -0.0068 -0.0760 -0.1926
 1807W        W11287  13.178   2.444   7.386 -0.0312  0.1295  0.3200
 1808W        W11288   0.607   4.182   8.845  0.4327 -0.0642  0.0180
 1809W        W11289   5.148   5.304   1.446  0.1428 -0.2467 -0.1188
 1810W        W11290  14.897   1.938   2.101 -0.0441  0.2200 -0.1021
 1811W        W11291  11.662  10.559   9.070 -0.1648 -0.0404  0.0232
 1812W        W11292  12.285  12.706   8.123 -0.1490  0.1081  0.1568
 1813W        W11293   4.910  13.626   6.975 -0.2212 -0.1448 -0.1266
 1814W        W11294  11.869   0.057   0.213 -0.1777 -0.4390 -0.3757
 1815W        W11295   0.425   5.582   8.254 -0.0698  0.3131  0.0724
 1816W        W11296   1.888   1.951   9.013 -0.2233 -0.0454 -0.0102
 1817W        W11297  10.315  12.218   8.175  0.0723  0.0809 -0.1452
 1818W        W11298  12.833  14.436   2.506  0.1754  0.0264  0.1238
 1819W        W11299  13.887  15.245   8.253  0.1393 -0.0782 -0.1599
 1820W        W11300  13.059  14.500   7.912 -0.0658 -0.1126 -0.0393
 1821W        W11301  10.990   2.849   0.501 -0.2066  0.4680  0.0493
 1822W        W11302  10.620   0.844   8.154 -0.0428 -0.1972 -0.0486
 1823W        W11303   6.125   3.239   0.623 -0.2827  0.1823 -0.1903
 1824W        W11304   5.578   4.492   9.090  0.0215 -0.0747 -0.0300
 1825W        W11305   0.256   3.844   7.257  0.0700  0.1732  0.0613
 1826W        W11306  11.078   1.261   7.464  0.1699  0.1955 -0.1476
 1827W        W11307   5.108  11.626   1.969  0.2713 -0.1084 -0.0733
 1828W        W11308  14.402   3.082   7.174  0.1139  0.2204  0.3415
 1829W        W11309  10.077   0.904   2.701  0.2914 -0.1063  0.0974
 1830W        W11310  14.216  14.865   0.794  0.0263 -0.2813 -0.0918
 1831W        W11311  15.156  14.819   0.568  0.1670 -0.0916  0.1483
 1832W        W11312   3.755  13.981   0.805 -0.3980 -0.1281  0.2255
 1833W        W11313   2.532   2.896   7.562  0.3359 -0.1994  0.0953
 1834W        W11314   3.638   7.451   0.980  0.0356  0.2578 -0.1581
 1835W        W11315  11.988   0.557   0.108  0.2427  0.4196  0.2033
 1836W        W11316   0.579   8.848   0.486  0.0130 -0.2485 -0.1974
 1837W        W11317  14.912   5.344   0.938 -0.1899 -0.2959  0.1350
 1838W        W11318   2.854   5.120   7.065  0.0608 -0.0939  0.0633
 1839W        W11319  13.378   4.969   2.114 -0.2336 -0.1215 -0.0928
 1840W        W11320   0.639   5.692   6.897  0.1978  0.1866 -0.4173
 1841W        W11321  11.748  11.437   0.597  0.2388  0.0578 -0.2302
 1842W        W11322   0.497  14.341   2.574  0.0101 -0.0356 -0.1944
 1843W        W11323   1.877   0.830   8.486  0.1780 -0.1089  0.0429
 1844W        W11324   9.305   1.170   0.476  0.1358 -0.0955 -0.1575
 1845W        W11325   2.795   1.394   1.619 -0.2723 -0.3806 -0.1276
 1846W        W11326  10.957   1.869   7.261 -0.0101  0.2263 -0.3885
 1847W        W11327  13.312  10.000   8.914  0.3003  0.0181 -0.1427
 1848W        W11328  11.707  15.445   6.399 -0.1132  0.1408 -0.2521
 1849W        W11329   3.295   1.657   8.436  0.1970 -0.1911  0.2788
 1850W        W11330  13.895  13.170   2.301 -0.0100  0.1129  0.0926
 1851W        W11331   9.099   2.070   0.513 -0.0657 -0.2432 -0.2323
 1852W        W11332   0.749   2.273   7.010  0.2479 -0.0590 -0.0236
 1853W        W11333   5.819   0.484   8.965 -0.1911 -0.0357  0.0846
 1854W        W11334  11.708   4.367   0.556 -0.2092  0.0677 -0.0081
 1855W        W11335   8.867  11.973   7.001 -0.0720  0.2568 -0.1698
 1856W        W11336  14.556   1.494   7.409  0.1624  0.0061 -0.0978
 1857W        W11337  10.519   2.022   2.288 -0.2139  0.1319 -0.0131
 1858W        W11338   3.346  14.255   8.101  0.0802  0.2679 -0.1258
 1859W        W11339  12.483   3.952   6.975 -0.0827 -0.1616  0.2029
 1860W        W11340  12.189   3.628   8.932 -0.0824  0.0660  0.3312
 1861W        W11341   3.109   6.179   7.297 -0.0872 -0.2621  0.0518
 1862W        W11342  14.497  13.509   2.400  0.0070  0.1292  0.0588
 1863W        W11343  14.001  14.209   7.219 -0.1035 -0.2669  0.2404
 1864W        W11344   2.435   3.960   0.875  0.0649  0.0266  0.0417
 1865W        W11345   0.334   2.607   8.926  0.1422  0.0681 -0.0314
 1866W        W11346  15.418   3.125   2.006  0.0455  0.1413 -0.0847
 1867W        W11347   0.546   2.685   8.384  0.0364  0.2441  0.1025
 1868W        W11348   5.461   3.162   6.619  0.2663 -0.0079 -0.0686
 1869W        W11349  12.010   1.016   7.782  0.0135 -0.1503  0.1099
 1870W        W11350   0.579  14.908   7.204  0.4007 -0.1778 -0.1972
 1871W        W11351   1.428  10.542   8.214 -0.1468 -0.1664  0.0014
 1872W        W11352  12.130   0.571   8.208  0.1196  0.0558  0.2018
 1873W        W11353   5.580   6.815   8.433  0.4076  0.0182  0.1120
 1874W        W11354   2.280   1.146   0.443 -0.5522 -0.2648  0.0595
 1875W        W11355  14.343   0.475   0.827  0.0756  0.0298  0.0533
 1876W        W11356  14.104  15.308   7.760 -0.2323 -0.2174 -0.0323
 1877W        W11357  11.119  12.768   2.279 -0.1174  0.0583 -0.3811
 1878W        W11358  15.241   1.985   0.172 -0.0287 -0.1703 -0.0981
 1879W        W11359  11.836   2.323   1.247  0.0852 -0.2358  0.2121
 1880W        W11360   0.237  13.437   2.547  0.1604 -0.1660 -0.2427
 1881W        W11361   2.519   8.851   8.048  0.1111  0.1619  0.0703
 1882W        W11362  12.211   4.748   8.968  0.0293 -0.2727  0.0901
 1883W        W11363  11.122   6.977   7.616  0.0690 -0.2018 -0.0494
 1884W        W11364   0.728   5.861   7.923 -0.2476 -0.3403 -0.0985
 1885W        W11365  14.502  10.374   8.686 -0.1401 -0.5231  0.2015
 1886W        W11366  15.258   7.875   0.598 -0.0021 -0.2168  0.0166
 1887W        W11367   9.422  11.775   8.308  0.1970  0.1221 -0.0153
 1888W        W11368  14.999  13.788   6.969  0.0854 -0.0318  0.1008
 1889W        W11369  11.195  14.681   0.846  0.0440  0.0297 -0.0010
 1890W        W11370  13.012   4.548   0.090 -0.1347  0.3077  0.0959
 1891W        W11371  12.754   7.284   1.033  0.2018  0.2891 -0.0961
 1892W        W11372  11.106  14.747   8.329 -0.2899  0.2254  0.1138
 1893W        W11373  12.445   4.191   8.160 -0.2875  0.3331  0.0596
 1894W        W11374  12.622   5.344   1.155  0.0097 -0.0161 -0.3476
 1895W        W11375   1.874   2.815   0.309 -0.1805 -0.1959  0.0541
 1896W        W11376   0.163   2.484   1.322 -0.0573  0.0278  0.1998
 1897W        W11377   5.279   1.909   7.108 -0.0153 -0.1281 -0.2280
 1898W        W11378   1.202   3.165   0.634  0.4036  0.2232 -0.3214
 1899W        W11379   2.169  11.230   1.570 -0.1612 -0.0487  0.1112
 1900W        W11380  14.363   0.203   8.017 -0.1232  0.0161 -0.0392
 1901W        W11381  12.085  14.481   0.595 -0.0246  0.2177 -0.1045
 1902W        W11382  15.104   3.871   8.796  0.1906  0.3644 -0.0692
 1903W        W11383   0.812   3.595   6.803  0.0837 -0.2456 -0.1369
 1904W        W11384   8.871  11.415   9.027  0.2100  0.2481 -0.1426
 1905W        W11385   2.365   9.302   1.206  0.0984 -0.0041  0.0608
 1906W        W11386  11.146   4.332   1.269  0.4120  0.2358 -0.1435
 1907W        W11387   2.324   0.205   2.277 -0.2482  0.0159 -0.0324
 1908W        W11388   2.268  14.906   1.549  0.0140  0.2302 -0.1767
 1909W        W11389  12.004   1.324   6.586 -0.1551 -0.2392 -0.0855
 1910W        W11390  12.760   5.251   7.096 -0.0749  0.0334  0.3445
 1911W        W11391  12.319  11.403   2.152 -0.1371 -0.1466 -0.2754
 1912W        W11392  15.294  13.294   6.931 -0.3064 -0.1458 -0.1930
 1913W        W11393  11.978   1.968   0.840 -0.0282  0.0391  0.2183
 1914W        W11394   6.880   0.487   8.535 -0.5162 -0.0196 -0.3334
 1915W        W11395   3.587   8.948   2.440  0.0234  0.2799 -0.2405
 1916W        W11396   4.407   2.386   7.202  0.3136 -0.1691 -0.2866
 1917W        W11397  14.357  11.310   8.740 -0.0189 -0.1111 -0.3484
 1918W        W11398   2.051   5.464   7.030 -0.1156 -0.1272  0.1427
 1919W        W11399   3.514  14.649   0.651  0.3197 -0.0011  0.2339
 1920W        W11400  12.508  14.246   0.493  0.0253  0.1762 -0.0129
 1921W        W11401   7.870  10.453   0.859  0.0680  0.0966  0.0553
 1922W        W11402   4.354   0.436   2.323 -0.3157 -0.1593 -0.2579
 1923W        W11403  13.111   1.201   0.295  0.1315 -0.2647 -0.3925
 1924W        W11404   2.347   2.404   7.445  0.3027 -0.0823 -0.2776
 1925W        W11405  12.370   1.681   1.454 -0.0661 -0.3500  0.1963
 1926W        W11406  12.768   4.428   6.667  0.1435  0.0396  0.2581
 1927W        W11407   2.150  11.912   8.686 -0.0692 -0.0495  0.2360
 1928W        W11408   3.474   1.966   0.670  0.1011  0.0383 -0.3212
 1929W        W11409  12.086   2.905   0.407 -0.3705 -0.3859 -0.1604
 1930W        W11410  14.251   0.421   2.307 -0.1447 -0.1757  0.0314
 1931W        W11411   5.767   9.264   1.443 -0.0365 -0.0419 -0.0003
 1932W        W11412  12.260  12.593   7.109  0.0684  0.2343 -0.0405
 1933W        W11413  14.543   0.843   9.087 -0.1706 -0.1779  0.1003
 1934W        W11414   1.679   6.204   8.738 -0.0109 -0.2623  0.0923
 1935W        W11415   2.121   5.378   8.973  0.1264  0.2193  0.2497
 1936W        W11416  11.535   0.627   9.001  0.1573  0.0413 -0.2729
 1937W        W11417   8.139   4.791   2.018 -0.1038  0.1969 -0.2932
 1938W        W11418  14.881  14.075   7.379 -0.1847  0.4152  0.2022
 1939W        W11419   1.878   3.036   6.959 -0.2899  0.0117 -0.0136
 1940W        W11420   1.216   0.396   8.727 -0.2236 -0.1420  0.1502
 1941W        W11421   9.742  15.137   6.638 -0.1856  0.0013 -0.1212
 1942W        W11422   1.557   1.101   0.137  0.0466  0.2165 -0.1152
 1943W        W11423   5.775   5.000   1.211  0.0634  0.1655  0.0130
 1944W        W11424  14.459   3.252   9.011  0.1288 -0.0458  0.2505
 1945W        W11425   7.603   5.856   7.425  0.0419  0.0075 -0.0929
 1946W        W11426   5.303  13.497   8.226 -0.3105  0.1375  0.1543
 1947W        W11427  12.464   4.979   0.807  0.2032  0.2335 -0.1846
 1948W        W11428  11.372   3.897   7.207 -0.1062 -0.3681 -0.0408
 1949W        W11429  13.835   7.138   8.619  0.0327 -0.1205  0.0753
 1950W        W11430   2.065  13.445   7.755  0.2344 -0.1712 -0.0171
 1951W        W11431   1.072  12.498   1.648 -0.0922 -0.0548 -0.2277
 1952W        W11432  13.734   6.851   8.988  0.1538  0.3461 -0.0071
 1953W        W11433   4.904   7.306   6.457  0.0486 -0.0238  0.0052
 1954W        W11434   3.639   2.127   2.686 -0.1813  0.0671 -0.1288
 1955W        W11435  12.552  12.388   1.037  0.2771  0.3476 -0.1950
 1956W        W11436  11.349   5.893   7.609 -0.0491  0.3981  0.0182
 1957W        W11437   7.207   5.779   8.652 -0.1455  0.0453 -0.1939
 1958W        W11438   1.690  13.290   0.446 -0.1851 -0.2172 -0.4338
 1959W        W11439  15.146   3.925   2.036 -0.1503  0.0040 -0.1423
 1960W        W11440   9.613   2.536   0.969  0.1216 -0.2224  0.2118
 1961W        W11441   0.051   6.868   8.811  0.0534 -0.1007 -0.0775
 1962W        W11442  12.569   5.409   8.167 -0.1551  0.2510 -0.0815
 1963W        W11443   4.332   5.836   6.954  0.1286 -0.0617 -0.0158
 1964W        W11444  14.721   3.495   1.010 -0.0753 -0.3927 -0.1569
 1965W        W11445   1.119   6.016   7.639 -0.0949 -0.2047  0.0589
 1966W        W11446   1.834   7.988   0.861  0.3253 -0.2532  0.0533
 1967W        W11447   0.339   9.056   1.948 -0.0984  0.3010  0.2134
 1968W        W11448   1.197  10.788   6.135  0.0685 -0.1377  0.1639
 1969W        W11449   3.128  11.666   1.541 -0.1555  0.1071  0.1677
 1970W        W11450   5.236   8.730   1.109 -0.0460 -0.0918  0.0960
 1971W        W11451   3.557   7.323   9.014  0.1653  0.2747 -0.0256
 1972W        W11452  12.793   6.515   8.156 -0.0320  0.1707 -0.0815
 1973W        W11453   3.877  12.143   1.493 -0.3919  0.0695  0.0338
 1974W        W11454   9.541   8.426   8.499  0.2199  0.1637 -0.0482
 1975W        W11455   2.855   5.451   8.153  0.2179 -0.1823 -0.2501
 1976W        W11456  13.237  11.999   8.997  0.1954  0.2751  0.0452
 1977W        W11457  10.429   3.554   8.273  0.1754  0.1885  0.0938
 1978W        W11458   5.203   8.928   0.572  0.1121  0.1757 -0.2716
 1979W        W11459   2.713   2.352   7.120 -0.2785 -0.0677 -0.0957
 1980W        W11460  13.356   6.449   7.812 -0.0638  0.1196  0.2403
 1981W        W11461   0.593   6.592   7.162  0.1049  0.1757 -0.2526
 1982W        W11462   1.096   6.399   7.351  0.1118  0.0216  0.0193
 1983W        W11463   8.383  11.392   0.493  0.0697  0.0222  0.0107
 1984W        W11464  14.537   4.158   6.681 -0.1345  0.0709 -0.0137
 1985W        W11465   1.951   3.509   7.750  0.1392 -0.1845  0.2476
 1986W        W11466  13.663   8.480   0.596 -0.0300  0.2590  0.0730
 1987W        W11467   3.103   7.076   0.025  0.2557 -0.1893  0.0707
 1988W        W11468   2.966   6.275   2.318 -0.0897  0.2153  0.1124
 1989W        W11469  13.704   6.377   6.982 -0.0635 -0.0196 -0.3520
 1990W        W11470  11.066   3.306   2.315 -0.0820 -0.1399 -0.2790
 1991W        W11471  14.892   3.267   8.726 -0.3331 -0.2688  0.0086
 1992W        W11472   0.049   1.535   0.806 -0.1755 -0.0721 -0.1125
 1993W        W11473  13.400   0.022   2.154  0.1105 -0.2265 -0.2763
 1994W        W11474   6.915   6.748   0.764 -0.2108 -0.0936  0.1112
 1995W        W11475   9.880   0.215   7.713 -0.1309 -0.2196  0.0235
 1996W        W11476   6.589   1.617   6.853  0.0304 -0.0551  0.0300
 1997W        W11477  11.307   7.011   8.599 -0.1744  0.2208 -0.0476
 1998W        W11478  13.142   4.069   9.006  0.0584  0.2357  0.2266
 1999W        W11479   8.356   3.434   0.263  0.0968 -0.1273 -0.0989
 2000W        W11480   2.159   5.519   7.534  0.1456  0.5643  0.2205
 2001W        W11481  11.099  14.194   8.460 -0.2752  0.2578  0.0495
 2002W        W11482   1.532   4.120   0.395 -0.2158  0.1619  0.4350
 2003W        W11483   1.194   5.180   0.610 -0.2673  0.1377  0.1760
 2004W        W11484   2.551   8.250   7.185 -0.0169  0.1878  0.3004
 2005W        W11485   4.221   3.348   1.057  0.0286  0.1391 -0.0084
 2006W        W11486  14.933   2.956   1.007  0.2957  0.0096 -0.3804
 2007W        W11487   4.901   2.373   7.004 -0.2606  0.3860  0.0432
 2008W        W11488   3.694   6.936   7.084 -0.1357 -0.1212  0.0645
 2009W        W11489   0.964   1.721   7.534 -0.1440  0.0264 -0.0247
 2010W        W11490  12.951   2.128   7.100  0.0267 -0.1658 -0.0421
 2011W        W11491   4.358   5.537   7.642  0.0156 -0.2624  0.2929
 2012W        W11492   4.097   7.152   7.526  0.1391 -0.1143  0.0514
 2013W        W11493   5.658   8.155   8.530  0.1508  0.0901  0.0543
 2014W        W11494   3.968   6.160   7.456 -0.2924  0.2598  0.0015
 2015W        W11495   5.282   5.525   6.508 -0.2845 -0.0892 -0.1405
 2016W        W11496  12.061   9.164   1.108 -0.1040  0.2264  0.0696
 2017W        W11497   6.800   7.630   2.096 -0.0690 -0.0040  0.0973
 2018W        W11498   1.325   2.633   1.902  0.1319 -0.0157  0.0499
 2019W        W11499   5.493   6.867   7.096 -0.1127 -0.1510  0.0922
 2020W        W11500  13.511   3.398   7.092  0.1035 -0.1712  0.2450
 2021W        W11501   6.035  15.048   0.171  0.2868  0.3792  0.0251
 2022W        W11502   4.128   6.564   1.342  0.2150  0.1524 -0.1028
 2023W        W11503   2.600   6.988   1.958  0.0639 -0.2136 -0.0429
 2024W        W11504  15.182   9.670   2.037  0.0522 -0.3788 -0.0217
 2025W        W11505   5.816  14.341   0.651 -0.1830 -0.1832  0.2135
 2026W        W11506   0.375   7.583   6.789 -0.0235  0.0453 -0.3198
 2027W        W11507  14.414   6.020   6.603  0.1742  0.4212 -0.2209
 2028W        W11508   2.982   5.629   0.700  0.2738  0.0048  0.0655
 2029W        W11509  12.649   1.743   7.361 -0.0510 -0.0535  0.0562
 2030W        W11510   8.440   9.460   6.881 -0.0283 -0.1867  0.1789
 2031W        W11511   2.950   3.319   6.537 -0.2016 -0.1974 -0.3336
 2032W        W11512   2.610   8.712   6.949  0.0155 -0.1591  0.1170
 2033W        W11513   1.342   5.855   1.420  0.1601 -0.0125  0.2761
 2034W        W11514   2.185  15.181   7.491 -0.1133  0.2090 -0.0776
 2035W        W11515  12.405   6.873   8.458  0.0759  0.1660 -0.2422
 2036W        W11516  12.763   1.835   0.486  0.3947  0.1360  0.0286
 2037W        W11517  11.466   5.652   1.572 -0.0846 -0.0086 -0.1674
 2038W        W11518   3.544   4.157   1.892 -0.0204  0.0925 -0.1342
 2039W        W11519  14.776  12.604   6.789 -0.1081  0.3432  0.4824
 2040W        W11520  15.144  15.061   0.159 -0.0528  0.2225 -0.2024
 2041W        W11521  11.205   7.140   1.801  0.1166  0.1197  0.2855
 2042W        W11522   3.796   6.632   7.516  0.4369 -0.0938 -0.0916
 2043W        W11523  14.791   2.891   0.518  0.0966 -0.0543 -0.1741
 2044W        W11524   3.587   5.788   6.613 -0.2054 -0.1755 -0.0859
 2045W        W11525   3.143   7.385   7.785 -0.1013  0.1082  0.2544
 2046W        W11526   4.934   4.065   1.105  0.0408 -0.0968  0.1460
 2047W        W11527   0.623   9.480   7.869 -0.3907  0.1534  0.1228
 2048W        W11528   3.448   7.263   6.769 -0.2491  0.0772  0.2371
 2049W        W11529  14.075   2.971   6.813  0.0769  0.0026 -0.0243
 2050W        W11530  11.890   6.968   7.127 -0.0222  0.1567 -0.0927
 2051W        W11531  14.395   7.308   7.830  0.2645  0.0116 -0.0951
 2052W        W11532  14.146   6.587   7.323  0.2678  0.1672  0.0017
 2053W        W11533   4.908  10.035   1.772 -0.2664  0.0809  0.0443
 2054W        W11534  11.404  10.859   8.510  0.2491 -0.1818 -0.2567
 2055W        W11535   3.726   4.604   7.151  0.1796 -0.0760  0.3088
 2056W        W11536   4.244  13.077   8.872 -0.3343 -0.2068  0.0459
 2057W        W11537   0.294  15.427   8.562 -0.1027 -0.0119  0.0612
 2058W        W11538  12.426   7.907   8.338 -0.1513 -0.0333  0.1781
 2059W        W11539   4.395  12.148   0.193 -0.0526 -0.1620  0.0360
 2060W        W11540  10.329   2.893   2.140  0.2433 -0.1443  0.0389
 2061W        W11541  13.629   7.017   0.697 -0.1522  0.1198  0.0581
 2062W        W11542   0.677   3.610   8.527  0.0935 -0.1688  0.0188
 2063W        W11543   1.676   3.170   7.439  0.1838  0.0399 -0.2162
 2064W        W11544  15.292   3.442   8.418  0.1223  0.1641  0.0220
 2065W        W11545   3.153   4.612   0.893  0.2162 -0.0729  0.2063
 2066W        W11546   6.687   6.100   1.176 -0.1471  0.0143  0.1534
 2067W        W11547   0.779   8.987   6.174 -0.0411 -0.2128 -0.2967
 2068W        W11548  14.249   4.957   1.592 -0.2970 -0.3419  0.0895
 2069W        W11549  14.756  14.483   1.965  0.0444  0.0621  0.2133
 2070W        W11550  14.882   7.800   1.689 -0.2041  0.0461  0.2390
 2071W        W11551   3.203   6.194   6.821  0.0750  0.2163  0.1705
 2072W        W11552   4.361  12.296   7.434  0.0888  0.3877 -0.1620
 2073W        W11553   2.492   4.687   7.236 -0.0246 -0.1038 -0.1058
 2074W        W11554   0.358   4.422   7.523 -0.0507  0.2045 -0.0410
 2075W        W11555   5.498   6.111   8.920 -0.1485  0.2158  0.1443
 2076W        W11556   0.578   4.206   7.962 -0.1425  0.0929 -0.2989
 2077W        W11557  11.722   4.401   1.846 -0.2311  0.1340  0.3575
 2078W        W11558  13.278  12.795   1.128  0.0664  0.2550 -0.4762
 2079W        W11559   4.240   4.762   0.709  0.4138 -0.1168  0.2754
 2080W        W11560   5.391   1.458   9.068  0.1156 -0.0307 -0.3517
 2081W        W11561  11.661   0.519   0.702 -0.1521  0.2108  0.0296
 2082W        W11562   0.614  15.309   7.558  0.0703  0.1269 -0.3037
 2083W        W11563   3.583   7.355   1.873  0.5285  0.2108  0.0206
 2084W        W11564   2.230   7.153   0.638 -0.1820 -0.0535  0.0564
 2085W        W11565   3.913   6.482   2.413 -0.1033 -0.0572  0.1226
 2086W        W11566  14.968   5.503   7.378  0.0867 -0.0111  0.0136
 2087W        W11567  14.623   6.841   7.049  0.3195  0.2150 -0.0760
 2088W        W11568  14.528   8.400   8.583  0.0845  0.4097 -0.0697
 2089W        W11569  15.041   6.662   0.384  0.1759 -0.3892  0.1381
 2090W        W11570  12.032   7.381   0.337 -0.1419 -0.3892 -0.2588
 2091W        W11571   2.878  11.402   1.175 -0.2345  0.1876 -0.5340
 2092W        W11572   1.725   1.929   1.933  0.0901  0.0666 -0.1227
 2093W        W11573   2.827   3.679   2.465 -0.0437 -0.1842  0.0238
 2094W        W11574   3.746   6.444   1.034  0.2060  0.4406  0.2604
 2095W        W11575   5.707   8.276   8.073 -0.0513  0.0921  0.1953
 2096W        W11576   3.779   6.979   0.584  0.3150  0.0573 -0.2429
 2097W        W11577   5.112   6.384   1.258  0.0071 -0.1072  0.0661
 2098W        W11578  14.788   4.776   7.776  0.1482 -0.0394  0.0698
 2099W        W11579   7.162   4.724   6.809 -0.0260  0.1843  0.0971
 2100W        W11580   2.826   7.010   7.929  0.1976 -0.3085  0.1945
 2101W        W11581   1.051   6.747   8.254 -0.3588  0.0298  0.4326
 2102W        W11582   0.767   4.010   7.089  0.1622 -0.1117 -0.0467
 2103W        W11583   8.785   8.325   1.904 -0.6580  0.1495  0.0410
 2104W        W11584   2.149   8.636   7.176  0.1808 -0.1068 -0.1840
 2105W        W11585  10.361   7.118   7.995 -0.1010  0.2479  0.4002
 2106W        W11586   2.535   1.946   7.354  0.3111 -0.0251 -0.1971
 2107W        W11587   7.993   1.107   6.402  0.2363 -0.1540  0.1317
 2108W        W11588   3.399   6.505   8.028 -0.0430 -0.1189  0.1153
 2109W        W11589  14.989   4.490   7.426 -0.0771 -0.0665 -0.1915
 2110W        W11590   3.532   9.542   6.477  0.0935  0.0852  0.0666
 2111W        W11591   2.822   5.677   0.239  0.0386 -0.0743  0.1453
 2112W        W11592  13.866   1.563   9.033 -0.3475  0.0173  0.0952
 2113W        W11593  13.701  10.939   8.068  0.1125 -0.0054  0.2601
 2114W        W11594   1.688  12.160   2.425  0.0560  0.0486 -0.1421
 2115W        W11595  13.267   4.662   7.331 -0.1175 -0.2986 -0.2046
 2116W        W11596   3.342   7.146   2.548 -0.1539  0.2732  0.1202
 2117W        W11597   6.453   5.200   8.447  0.1049 -0.0116 -0.1326
 2118W        W11598  12.450   0.998   7.434 -0.0311 -0.1930  0.0901
 2119W        W11599   3.441  14.504   0.130 -0.0789 -0.0322 -0.0549
 2120W        W11600   2.765   3.404   8.208 -0.0385  0.0257 -0.2549
 2121W        W11601   6.510   6.774   1.398 -0.1995 -0.2655  0.4532
 2122W        W11602   0.410   8.115   8.828 -0.5347 -0.0729 -0.1227
 2123W        W11603  14.008  12.901   1.808 -0.1500  0.0025  0.3695
 2124W        W11604   0.828   7.739   2.727 -0.0824 -0.0998 -0.0017
 2125W        W11605   4.326   2.409   7.785  0.3301 -0.1736  0.0514
 2126W        W11606   6.904   8.221   0.532 -0.1456 -0.2459 -0.2680
 2127W        W11607   4.374   4.399   7.900 -0.1568 -0.3538 -0.2272
 2128W        W11608  15.090   7.892   6.966  0.0212  0.2326  0.0715
 2129W        W11609   2.282   6.922   2.480 -0.3799 -0.0341  0.0482
 2130W        W11610   7.928   4.999   0.027 -0.0962 -0.3553  0.2601
 2131W        W11611   0.209   5.452   6.703 -0.0651  0.0994 -0.0137
 2132W        W11612   3.367   3.880   6.582 -0.1847  0.0065  0.0717
 2133W        W11613  14.808  11.168   6.917  0.0377  0.2647 -0.0065
 2134W        W11614   0.295   7.619   8.930 -0.0426 -0.2123 -0.0635
 2135W        W11615   0.236  11.043   6.981  0.3320 -0.1949  0.0439
 2136W        W11616   1.515   5.311   6.631 -0.0045  0.2293  0.1464
 2137W        W11617   2.936   8.384   8.256 -0.1913  0.3528 -0.0259
 2138W        W11618   2.606   6.461   8.784  0.1314  0.1697  0.1809
 2139W        W11619   5.564   5.186   6.759 -0.0334 -0.0483  0.3013
 2140W        W11620  14.467   9.722   1.035 -0.3670 -0.4033 -0.2101
 2141W        W11621   2.214   6.406   7.453 -0.1363  0.4348  0.0247
 2142W        W11622  14.210   4.600   6.480  0.0590  0.2360  0.1143
 2143W        W11623   0.081   9.378   8.879  0.1766 -0.0238 -0.2193
 2144W        W11624   3.622   8.824   1.936  0.0235 -0.2871  0.2024
 2145W        W11625  10.675  10.242   8.317  0.0595 -0.2125  0.0344
 2146W        W11626  15.054   6.203   1.669 -0.1571  0.0370 -0.1047
 2147W        W11627  14.053   1.931   1.172 -0.4408 -0.1845  0.3052
 2148W        W11628  12.400   5.720   2.026 -0.0165 -0.0327 -0.2352
 2149W        W11629   0.740   6.069   7.277 -0.0732  0.0788 -0.0196
 2150W        W11630  11.489   6.674   7.080 -0.1964  0.1524  0.2303
 2151W        W11631   2.820   4.420   7.992  0.1476  0.0849  0.2401
 2152W        W11632   5.118   6.887   7.430 -0.0278 -0.0822  0.2714
 2153W        W11633   9.276  11.405   7.981 -0.0579  0.2261  0.1727
 2154W        W11634   0.975  13.709   1.445  0.0166 -0.1154 -0.0672
 2155W        W11635  12.172   3.859   2.246 -0.2111 -0.0200  0.1153
 2156W        W11636  14.323   0.191   1.399  0.2054 -0.0894  0.1878
 2157W        W11637   4.799   3.237   0.005 -0.1534  0.1841 -0.2740
 2158W        W11638  15.113   2.195   7.733 -0.1185 -0.1652 -0.0268
 2159W        W11639  15.218   9.366   8.488 -0.1642  0.0176 -0.1300
 2160W        W11640   5.392   4.450   7.734  0.1345  0.2267  0.3483
 2161W        W11641   3.305   9.198   7.754 -0.0107  0.3262  0.3047
 2162W        W11642  10.145   0.726   1.841  0.2652  0.0956  0.1583
 2163W        W11643   0.292   1.335   7.998  0.2997  0.3017 -0.0076
 2164W        W11644   2.550   2.466   6.647  0.0682 -0.0384  0.1910
 2165W        W11645   3.476   8.911   0.988 -0.1068  0.2329 -0.0197
 2166W        W11646   9.005   4.098   7.054 -0.0366 -0.2132  0.0548
 2167W        W11647   4.761   8.079   8.179  0.0474  0.2613 -0.2197
 2168W        W11648  14.174   5.243   0.757  0.2467  0.1195 -0.0644
 2169W        W11649   3.071   9.120   1.192  0.2135  0.0783 -0.1133
 2170W        W11650   9.314   4.709   6.297  0.2065 -0.1547 -0.0450
 2171W        W11651   1.154   7.628   0.774  0.1136  0.0483  0.2599
 2172W        W11652   6.768   5.227   6.955  0.0342 -0.3391  0.2743
 2173W        W11653   6.859   9.936   7.366 -0.1850  0.0950  0.0218
 2174W        W11654   5.851   0.722   1.745  0.2154  0.0692  0.1383
 2175W        W11655  12.308   2.738   7.375  0.1558 -0.0868  0.3374
 2176W        W11656   8.568   7.328   1.970  0.0216  0.0161  0.0336
 2177W        W11657   4.597   8.716   6.585 -0.2820 -0.2309 -0.0116
 2178W        W11658   2.302   2.999   6.569 -0.0200 -0.0958  0.0016
 2179W        W11659   3.531   9.522   1.151 -0.0933 -0.0691 -0.0585
 2180W        W11660  11.224   3.354   8.808  0.2829  0.2946 -0.3084
 2181W        W11661   3.389   1.661   2.659 -0.2344 -0.1416 -0.1434
 2182W        W11662   3.869   4.314   8.757  0.2317 -0.4262 -0.2371
 2183W        W11663   8.496   4.145   7.775  0.0056  0.0546 -0.2548
 2184W        W11664   0.150   2.738   8.042  0.3879 -0.2734  0.1643
 2185W        W11665   5.960   5.447   6.548  0.0506 -0.0692 -0.5688
 2186W        W11666  11.091   5.613   1.873 -0.1511 -0.1809 -0.3859
 2187W        W11667  13.367   3.576   1.565 -0.0971  0.0619 -0.1400
 2188W        W11668   2.701   9.329   7.741 -0.1230 -0.0361  0.1766
 2189W        W11669  15.194   6.304   7.026 -0.2477  0.2883  0.2124
 2190W        W11670   6.798   7.248   0.685 -0.0076 -0.0193 -0.4040
 2191W        W11671   8.317   1.303   8.741 -0.1429  0.1113 -0.0368
 2192W        W11672   3.032   8.941   0.764 -0.0093  0.2379 -0.1620
 2193W        W11673   2.603   7.605   2.129 -0.3057 -0.2059  0.1901
 2194W        W11674   7.035   3.722   0.347  0.3515 -0.4848  0.3768
 2195W        W11675   8.801   3.327   7.330  0.3513 -0.0482  0.3413
 2196W        W11676   5.163   7.766   7.582  0.0828 -0.4000 -0.0652
 2197W        W11677   1.357   8.234   6.254 -0.3761 -0.0520 -0.1165
 2198W        W11678   5.255   2.468   7.369 -0.0759  0.0048 -0.1404
 2199W        W11679   3.865   6.888   7.976  0.0298 -0.5103  0.0344
 2200W        W11680   5.067   8.071   8.598  0.1875 -0.1543 -0.4291
 2201W        W11681   4.450   3.849   8.461 -0.3942 -0.0058  0.0379
 2202W        W11682   2.237  13.488   1.599 -0.0374  0.0211 -0.0053
 2203W        W11683   7.645   2.004   6.888  0.3003 -0.0889  0.0220
 2204W        W11684   9.158   2.942   0.229 -0.3401 -0.1196 -0.0609
 2205W        W11685   3.374   6.888   7.700  0.0417 -0.1738  0.0745
 2206W        W11686   3.176   7.790   1.718  0.1644  0.2086  0.1263
 2207W        W11687   6.933   3.439   9.065  0.1321  0.3398 -0.1809
 2208W        W11688   8.922   9.346   6.792 -0.3524 -0.0615 -0.1458
 2209W        W11689  14.283   6.141   7.171 -0.2164 -0.1590 -0.2411
 2210W        W11690  14.376   4.541   1.189  0.0343  0.1091 -0.0196
 2211W        W11691   9.567   7.889   6.891  0.1504  0.1779 -0.2805
 2212W        W11692   7.112   4.218   1.063  0.2357  0.2261 -0.3432
 2213W        W11693   2.815   3.445   8.974  0.1148 -0.1943 -0.2022
 2214W        W11694   0.166   7.638   1.928 -0.0512  0.3544 -0.2181
 2215W        W11695   8.139   4.354   2.365  0.1259  0.0274  0.1699
 2216W        W11696   8.859   1.281   7.428  0.1646 -0.1104  0.3452
 2217W        W11697   5.456  11.309   2.133  0.1852  0.1598 -0.1360
 2218W        W11698   4.426   7.031   8.010 -0.1191  0.0864 -0.1236
 2219W        W11699   8.046   3.676   1.718 -0.2690 -0.2838 -0.1979
 2220W        W11700   6.756   2.332   6.909  0.1986 -0.0033 -0.1989
 2221W        W11701   7.945  11.536   8.236 -0.1115 -0.0069 -0.0074
 2222W        W11702   2.259   7.673   6.684  0.0170  0.4023 -0.1969
 2223W        W11703   1.981   2.277   0.595  0.0905  0.0850 -0.1150
 2224W        W11704  11.225   4.344   6.851 -0.2011  0.0598  0.0778
 2225W        W11705   4.273   7.692   7.334  0.0787 -0.0423 -0.2183
 2226W        W11706   2.398   7.866   7.822 -0.0866  0.3665  0.1153
 2227W        W11707   2.518  10.995   0.603  0.2099  0.0545 -0.2772
 2228W        W11708   4.606   3.729   9.003 -0.0352 -0.1329  0.1162
 2229W        W11709   7.050   3.632   7.195  0.0830 -0.0588 -0.1703
 2230W        W11710   2.708   6.904   8.904  0.1781 -0.0705  0.1639
 2231W        W11711  13.412  13.265   1.154  0.2609 -0.0207 -0.0942
 2232W        W11712  14.648   6.991   0.316 -0.2490  0.0568  0.0020
 2233W        W11713   8.291  13.493   7.660 -0.2564  0.0894  0.1540
 2234W        W11714   4.054  14.374   8.942  0.0263  0.0323  0.0488
 2235W        W11715   6.807   3.302   7.532 -0.0695  0.0277  0.3438
 2236W        W11716   2.684   3.170   0.296  0.0332 -0.0694  0.0317
 2237W        W11717   3.184   2.195   7.288 -0.0164  0.0340  0.0799
 2238W        W11718  13.006   4.810   6.922 -0.0613 -0.2288  0.1134
 2239W        W11719  12.343   9.215   1.622 -0.4716 -0.2498 -0.1022
 2240W        W11720   9.148   4.263   0.623 -0.0524 -0.1170  0.1164
 2241W        W11721   7.283   4.665   1.919  0.2846  0.0299  0.4221
 2242W        W11722   4.290   2.271   8.855  0.1160  0.0980  0.1851
 2243W        W11723   0.972   5.952   6.514  0.1083  0.2626 -0.2260
 2244W        W11724  13.613   1.189   7.855  0.0795  0.3175  0.1358
 2245W        W11725   1.361   0.967   8.734 -0.2131 -0.0530  0.0777
 2246W        W11726   5.714   4.931   1.824  0.0272  0.0525 -0.0474
 2247W        W11727   6.825   3.904   8.303 -0.1152  0.0972  0.0972
 2248W        W11728   9.744   7.145   2.810 -0.1036  0.0169  0.1271
 2249W        W11729   2.388   3.207   7.914  0.1223  0.2117  0.1853
 2250W        W11730   5.644   5.233   8.861  0.0460  0.1425 -0.1219
 2251W        W11731   8.020   3.068   6.925  0.1149 -0.1998  0.1727
 2252W        W11732   6.028   9.820   7.694  0.3739  0.0520 -0.1427
 2253W        W11733   4.877   8.700   7.481 -0.0365  0.0967  0.1110
 2254W        W11734  10.126   4.802   7.184 -0.0122  0.0469  0.5183
 2255W        W11735   5.104   9.340   8.604 -0.1411  0.0513  0.0338
 2256W        W11736   7.844   3.034   7.527 -0.1743 -0.2356 -0.0641
 2257W        W11737   9.742   3.295   8.338 -0.2712  0.0647 -0.0301
 2258W        W11738  14.849   0.859   7.186  0.0654  0.0187 -0.0804
 2259W        W11739   5.808   6.610   6.296  0.1368 -0.2042 -0.0959
 2260W        W11740   3.456   4.565   0.003 -0.0130  0.3425  0.3324
 2261W        W11741   1.473   5.799   6.655 -0.0048 -0.0375 -0.2685
 2262W        W11742  15.361   3.289   7.948 -0.3279  0.1681 -0.0543
 2263W        W11743   7.516   3.081   2.045 -0.3131 -0.2792 -0.2673
 2264W        W11744  14.298   7.143   2.210 -0.0162  0.2594 -0.3116
 2265W        W11745   2.441   4.901   6.446  0.1071  0.0246 -0.2854
 2266W        W11746   1.468   6.449   0.784  0.0066 -0.2831 -0.2776
 2267W        W11747   4.833   4.485   6.985  0.0414  0.0876 -0.0168
 2268W        W11748   7.506   7.503   0.354 -0.0725  0.4867  0.2700
 2269W        W11749   3.385   5.392   6.846  0.0992  0.2471 -0.1068
 2270W        W11750   7.697   8.387   6.921 -0.0966  0.1672 -0.2240
 2271W        W11751  14.696   6.153   0.904 -0.3349  0.0604 -0.1133
 2272W        W11752   6.159   5.128   1.613 -0.1799 -0.3878  0.1719
 2273W        W11753   5.485   6.225   0.667 -0.2414 -0.1203 -0.0297
 2274W        W11754   8.739   7.590   7.196  0.1214 -0.0506  0.2405
 2275W        W11755   7.109   7.699   2.541  0.0511  0.2692  0.2053
 2276W        W11756   5.203   4.762   8.356  0.0057 -0.1930  0.1029
 2277W        W11757   3.008   5.241   1.013 -0.0155 -0.0787  0.1171
 2278W        W11758   6.456   7.105   7.478 -0.1957  0.2794  0.0758
 2279W        W11759   6.704   6.862   0.351  0.0907 -0.1832  0.0556
 2280W        W11760   3.043  10.242   2.531 -0.0333 -0.2159  0.3043
 2281W        W11761   4.594   6.654   6.856  0.3389 -0.1787  0.2469
 2282W        W11762  15.409   4.635   0.264 -0.1483 -0.0979 -0.2449
 2283W        W11763   7.559   7.852   8.195 -0.1987  0.1104 -0.2268
 2284W        W11764   1.468  14.874   1.863 -0.0514  0.0183 -0.1656
 2285W        W11765   4.698   7.171   8.698  0.0142  0.0536  0.0069
 2286W        W11766   3.822   5.487   6.214 -0.1002 -0.0659  0.0589
 2287W        W11767   2.691   6.566   7.433  0.1107  0.1240  0.0451
 2288W        W11768   3.617   6.028   8.205  0.1675 -0.0885 -0.0609
 2289W        W11769   9.092   6.889   0.866  0.1335 -0.2159  0.0987
 2290W        W11770   8.730  15.117   0.471  0.2188  0.2236  0.2879
 2291W        W11771   6.726   0.259   7.054  0.2942 -0.1677 -0.0736
 2292W        W11772  12.387   6.441   6.399 -0.1258 -0.2247  0.0197
 2293W        W11773  11.148   2.467   8.025 -0.3139  0.1954 -0.1578
 2294W        W11774   6.032   1.638   1.542 -0.2721  0.0590 -0.2538
 2295W        W11775   4.037   4.703   2.442  0.1181 -0.0205 -0.0998
 2296W        W11776   6.877   5.227   1.111 -0.1637  0.0513  0.0293
 2297W        W11777   3.996   5.297   8.556 -0.1742 -0.0929  0.2122
 2298W        W11778   9.017   0.155   2.131 -0.0264 -0.2094 -0.0671
 2299W        W11779   6.727   2.661   0.194  0.2648 -0.1535 -0.3055
 2300W        W11780  14.128   1.410   8.622 -0.0543 -0.1180 -0.0485
 2301W        W11781   6.989   7.023   1.567 -0.1577 -0.2589 -0.0064
 2302W        W11782   4.357   3.064   1.459 -0.1802 -0.2054  0.1136
 2303W        W11783   1.913   9.283   7.526  0.0389  0.0152  0.0521
 2304W        W11784   2.643   8.344   7.666  0.1072  0.0651  0.1258
 2305W        W11785  14.245   6.494   6.841  0.2374  0.0507  0.2343
 2306W        W11786   6.904   1.429   0.530  0.0868  0.0601  0.0157
 2307W        W11787  11.110  14.600   1.596 -0.0516 -0.2460 -0.1308
 2308W        W11788   3.554   1.518   0.382 -0.1075  0.0248 -0.1373
 2309W        W11789   4.621   7.785   6.386  0.2236  0.2478 -0.0795
 2310W        W11790   2.809   7.227   0.737  0.0224 -0.1746  0.0653
 2311W        W11791   4.479   8.431   7.649 -0.1446 -0.2429  0.0744
 2312W        W11792   8.600   2.947   0.292 -0.0744  0.0864 -0.3342
 2313W        W11793  14.164   9.705   6.957 -0.3058 -0.4481  0.2708
 2314W        W11794   6.098   9.089   8.885 -0.2395  0.1126  0.1047
 2315W        W11795   5.145   4.796   7.503  0.2757  0.2637 -0.1650
 2316W        W11796   2.749   4.314   7.126 -0.1068  0.1795  0.2713
 2317W        W11797   1.210   4.846   9.069 -0.4722 -0.2485  0.1335
 2318W        W11798   7.247   5.327   0.765  0.3681  0.3060 -0.0142
 2319W        W11799   2.709   7.935   6.761  0.1869 -0.2607 -0.0132
 2320W        W11800  13.973   9.055   7.377 -0.1747  0.0003 -0.2884
 2321W        W11801   1.135   8.186   7.718  0.0407 -0.0727  0.2004
 2322W        W11802   2.898   9.227   8.164  0.1842 -0.2129  0.1341
 2323W        W11803   2.741   4.726   6.785 -0.1546 -0.2210 -0.4185
 2324W        W11804   5.099   5.613   2.333 -0.0980 -0.1127 -0.0164
 2325W        W11805  14.536   7.786   0.784  0.0034 -0.1289 -0.1184
 2326W        W11806   1.990   1.355   8.461 -0.0889  0.1250  0.1977
 2327W        W11807   3.127   8.859   1.711  0.2149  0.0437  0.2128
 2328W        W11808   2.341   5.327   7.991 -0.0690  0.1449  0.2570
 2329W        W11809   5.977   6.298   0.740  0.1862  0.1559 -0.2093
 2330W        W11810   8.306   6.582   7.012  0.0729  0.3481 -0.1950
 2331W        W11811  14.807   4.269   2.150  0.1888 -0.2476  0.2009
 2332W        W11812  10.420  14.696   2.079  0.0407 -0.1711 -0.0509
 2333W        W11813   2.036   9.658   8.135  0.2041 -0.0837 -0.0806
 2334W        W11814   1.810   9.942   7.612  0.1695 -0.1086 -0.2479
 2335W        W11815  12.757   5.446   2.287  0.1421  0.2224  0.2231
 2336W        W11816   8.901   8.066   7.135 -0.2220  0.0854  0.0262
 2337W        W11817   4.442   4.586   2.036  0.2018 -0.2805  0.0562
 2338W        W11818   6.977   7.143   2.045  0.1173 -0.1220  0.1657
 2339W        W11819   6.673   1.943   1.726  0.0682  0.0959 -0.0431
 2340W        W11820   6.539   2.809   2.660 -0.0724 -0.0075  0.2743
 2341W        W11821   8.002   6.825   8.379 -0.0302 -0.0467  0.1918
 2342W        W11822   6.361   0.967   2.015 -0.2058 -0.0321 -0.2815
 2343W        W11823   8.817  14.724   7.595  0.2622 -0.3265 -0.1425
 2344W        W11824   6.227   0.299   7.128 -0.1518 -0.3538 -0.2125
 2345W        W11825   2.331   4.786   8.193 -0.2030 -0.0656 -0.1437
 2346W        W11826   5.671   5.884   6.725  0.0365  0.0663 -0.1866
 2347W        W11827   3.174   4.529   7.094  0.2262  0.0210 -0.0605
 2348W        W11828   6.277   7.790   8.666 -0.0453  0.2352 -0.0278
 2349W        W11829  10.487   6.283   0.182 -0.2672  0.0651  0.2314
 2350W        W11830  13.925   7.536   0.584 -0.0997 -0.1045 -0.2765
 2351W        W11831   3.250   3.385   8.053 -0.0432 -0.0206  0.0328
 2352W        W11832   8.459   4.665   1.241 -0.0880 -0.0989 -0.0555
 2353W        W11833   0.205   7.162   7.074  0.2187  0.2123  0.0600
 2354W        W11834   4.399  11.000   6.368 -0.2093  0.2479 -0.0764
 2355W        W11835   5.952  12.774   1.414 -0.0365 -0.4971 -0.0838
 2356W        W11836  14.446   4.195   8.645 -0.0772 -0.0177 -0.0501
 2357W        W11837  11.277   3.112   3.057 -0.0161 -0.1060 -0.0010
 2358W        W11838   8.398  14.222   7.038  0.2093 -0.1712 -0.0871
 2359W        W11839  11.272   3.851   8.733 -0.0274 -0.1714  0.0030
 2360W        W11840   9.950   5.908   2.272  0.0513  0.0422 -0.1807
 2361W        W11841   1.748   7.050   1.207 -0.2312 -0.1425  0.0242
 2362W        W11842   8.923   5.982   8.710 -0.0022  0.0123 -0.3425
 2363W        W11843   7.033   0.910   8.737  0.0843 -0.1269  0.1370
 2364W        W11844  12.993   7.920   0.483 -0.1791  0.0859 -0.0725
 2365W        W11845   4.646   5.862   2.013  0.0208 -0.3707  0.0468
 2366W        W11846   7.203   1.434   2.736 -0.0757 -0.3756 -0.0909
 2367W        W11847   3.401   4.957   1.108 -0.2135 -0.3256 -0.2971
 2368W        W11848   8.268   4.369   7.377 -0.2518 -0.2568  0.1550
 2369W        W11849   9.942   7.692   7.195 -0.0361 -0.0334  0.2175
 2370W        W11850   9.687   0.426   7.187  0.0459  0.2722 -0.0187
 2371W        W11851  14.159   7.376   0.962  0.0866  0.2265  0.2273
 2372W        W11852  14.196   6.866   8.833 -0.0834 -0.1567 -0.0110
 2373W        W11853   7.165   0.474   9.046  0.0040 -0.1847  0.0302
 2374W        W11854   8.220   7.025   6.953  0.3144 -0.0996  0.0128
 2375W        W11855   9.093   9.541   7.787  0.1855  0.1468  0.0029
 2376W        W11856   6.611  10.248   0.810  0.0434  0.1296  0.0031
 2377W        W11857   6.270   4.749   1.932  0.1015 -0.2637  0.3270
 2378W        W11858   1.176   2.824   7.910 -0.2753 -0.4934  0.2521
 2379W        W11859   9.714   2.279   1.744  0.0591  0.0625 -0.1429
 2380W        W11860  14.327   8.422   1.882  0.0446 -0.1615  0.0183
 2381W        W11861   4.659   3.817   2.523 -0.0086  0.1700  0.1382
 2382W        W11862   3.193   3.647   7.583 -0.1346  0.0684  0.1154
 2383W        W11863  10.195   8.971   0.414 -0.0727 -0.1140  0.4020
 2384W        W11864   9.446   9.901   2.639 -0.0028  0.2276  0.2131
 2385W        W11865   6.825   9.481   7.224  0.0475 -0.1114  0.0283
 2386W        W11866   8.084   7.215   6.518 -0.1537  0.0717 -0.0449
 2387W        W11867  10.524   4.873   1.851  0.1559  0.0945  0.1115
 2388W        W11868   9.767  12.065   7.290 -0.0420 -0.2554 -0.1100
 2389W        W11869   4.809   3.842   7.118 -0.0058  0.0939 -0.0961
 2390W        W11870   2.416   6.687   0.611 -0.3010  0.0491  0.0722
 2391W        W11871  10.713  11.263   1.418 -0.0779 -0.0565 -0.0463
 2392W        W11872  11.229  14.338   6.943 -0.0928 -0.2004 -0.0823
 2393W        W11873   8.891   8.633   6.580  0.2370  0.1347 -0.2895
 2394W        W11874   5.278   7.323   0.052  0.3284  0.2081  0.1007
 2395W        W11875   6.796   5.434   8.175  0.1725 -0.1634  0.0728
 2396W        W11876   7.777   8.803   7.314 -0.2362  0.1966  0.2249
 2397W        W11877   8.796   9.392   8.984  0.0705  0.2338  0.0517
 2398W        W11878   5.229   1.275   2.056 -0.1784 -0.2207  0.1612
 2399W        W11879   8.080   4.759   8.656  0.1975  0.0079  0.0851
 2400W        W11880  14.421   0.453   0.333  0.2230  0.2111 -0.0009
 2401W        W11881   8.084  13.864   6.860  0.4000  0.0942  0.0820
 2402W        W11882   6.888   1.291   8.485 -0.2472  0.0372  0.2103
 2403W        W11883   6.958   0.740   6.963 -0.1085  0.0046 -0.0007
 2404W        W11884  10.762   2.557   0.068  0.2316 -0.3272  0.3327
 2405W        W11885   6.199   7.924   0.940 -0.0931 -0.0824 -0.0155
 2406W        W11886  11.441   4.328   8.606  0.3163 -0.0640  0.4158
 2407W        W11887  12.354   3.208   8.649  0.3362 -0.0262 -0.0963
 2408W        W11888  12.612   3.996   6.456  0.4037  0.0644  0.3569
 2409W        W11889   5.632   7.274   2.216  0.1950 -0.1651 -0.1375
 2410W        W11890   5.861   4.935   0.175 -0.0458  0.2292  0.1877
 2411W        W11891   3.769   6.801   1.576  0.0560  0.2576 -0.2469
 2412W        W11892   8.890   3.856   0.372 -0.3810 -0.1499 -0.0711
 2413W        W11893   7.903   7.868   1.020 -0.1771  0.1495 -0.1198
 2414W        W11894  11.526   2.758   8.246  0.1755  0.1696  0.1710
 2415W        W11895   4.963   4.129   0.612 -0.1514 -0.3628  0.0329
 2416W        W11896  11.689   3.714   2.336 -0.0189 -0.2100  0.0266
 2417W        W11897   7.722  14.722   7.367 -0.3242  0.1960  0.0121
 2418W        W11898  12.690   1.851   8.694 -0.1709 -0.2103  0.1458
 2419W        W11899   4.899   8.945   8.402 -0.1097 -0.0251  0.0150
 2420W        W11900   8.757   4.389   1.633 -0.0273 -0.0496  0.0142
 2421W        W11901   8.940   9.020   7.366 -0.1620  0.0925 -0.0001
 2422W        W11902  14.789  13.569   7.665 -0.0947 -0.0803  0.0063
 2423W        W11903   7.036   4.629   8.809 -0.0880  0.1953 -0.1398
 2424W        W11904  12.343   7.486   2.186 -0.0052 -0.1315 -0.1107
 2425W        W11905   7.473   6.181   0.315 -0.2011  0.1274 -0.3732
 2426W        W11906  10.835   5.089   8.944 -0.0135 -0.0517  0.0509
 2427W        W11907   7.447   7.175   1.438 -0.0788  0.0174  0.0446
 2428W        W11908   7.879   1.252   1.520  0.0085 -0.1377  0.0660
 2429W        W11909   7.451   9.707   8.229 -0.1529  0.0552 -0.1003
 2430W        W11910   8.128   1.245   6.878 -0.1845 -0.2040 -0.1599
 2431W        W11911   6.273   7.414   1.019 -0.1910  0.1128  0.0939
 2432W        W11912  14.497   4.320   7.183  0.1616 -0.1826  0.2457
 2433W        W11913  11.485  14.719   1.285 -0.0152 -0.1122  0.2205
 2434W        W11914   5.774   3.452   6.389 -0.1754 -0.1469 -0.0990
 2435W        W11915  12.793   4.386   7.187 -0.0645  0.2105  0.1715
 2436W        W11916   7.473   5.787   0.002 -0.1979 -0.2676 -0.0026
 2437W        W11917   6.212   6.350   6.938  0.1036  0.4894  0.0646
 2438W        W11918   7.261  15.412   7.497 -0.0897  0.0997 -0.2157
 2439W        W11919   7.715   5.320   8.236 -0.0747 -0.0893 -0.2706
 2440W        W11920   8.663   5.371   1.024 -0.3155  0.0125 -0.0586
 2441W        W11921   7.906   3.659   0.083 -0.0872  0.3715  0.0304
 2442W        W11922  13.976   7.814   1.046  0.0035  0.2730  0.0883
 2443W        W11923   6.176  10.023   0.815  0.1520 -0.2489 -0.0840
 2444W        W11924   2.030   9.517   2.111  0.0195  0.0725  0.1321
 2445W        W11925   6.521  10.887   8.197 -0.0984 -0.1276 -0.1796
 2446W        W11926  13.325   4.054   2.930 -0.2365 -0.0425  0.2136
 2447W        W11927   9.413   0.377   0.891  0.0841 -0.2420 -0.1371
 2448W        W11928  13.891   5.365   8.461  0.1027  0.0825 -0.0266
 2449W        W11929  11.530   6.652   1.662 -0.0112  0.1926  0.4140
 2450W        W11930   3.676   1.977   7.586  0.1308 -0.0045 -0.2094
 2451W        W11931   5.361   3.563   8.145 -0.0894 -0.1147  0.2066
 2452W        W11932  12.962   1.590   0.007 -0.3728 -0.0491 -0.0190
 2453W        W11933   6.304   1.690   7.763  0.0511  0.2451 -0.0062
 2454W        W11934   8.375   2.686   1.874  0.0839  0.0838 -0.3385
 2455W        W11935   7.783   3.472   7.792  0.1727  0.2178  0.1203
 2456W        W11936   6.681   3.064   0.714  0.0129 -0.1870  0.0137
 2457W        W11937   8.579   6.845   8.558  0.1303 -0.0104 -0.2678
 2458W        W11938   5.403   1.050   8.062  0.1705 -0.1836  0.0712
 2459W        W11939   6.839  14.934   0.993  0.1535  0.0875  0.0646
 2460W        W11940   7.635  14.663   7.841 -0.1239  0.3054 -0.0518
 2461W        W11941   8.933   0.082   1.664  0.0784 -0.3040  0.0306
 2462W        W11942   7.087  14.724   7.796 -0.1488  0.0731  0.0394
 2463W        W11943  12.798   4.206   0.352 -0.0965  0.0839 -0.0359
 2464W        W11944  15.203   5.368   6.428 -0.1543 -0.0030 -0.0148
 2465W        W11945  10.733   2.577   8.330  0.2767 -0.1167  0.0929
 2466W        W11946   9.435   5.211   8.266  0.1891  0.1898 -0.0275
 2467W        W11947   5.790  11.902   6.667 -0.1607 -0.0701 -0.2291
 2468W        W11948   8.168  13.582   8.234 -0.0845  0.1981 -0.1441
 2469W        W11949  10.864   7.262   6.860  0.3581 -0.0828 -0.0636
 2470W        W11950   0.261   3.355   1.295 -0.2811 -0.4189 -0.1941
 2471W        W11951  12.868   9.769   8.940 -0.1414 -0.0631 -0.0960
 2472W        W11952   9.354   2.627   7.623 -0.0066  0.1228  0.1976
 2473W        W11953  11.989   5.581   6.901  0.0634 -0.1284 -0.0076
 2474W        W11954   3.610   3.728   7.022  0.2331  0.0178 -0.0604
 2475W        W11955  12.215   3.697   7.333  0.1008 -0.0942 -0.1822
 2476W        W11956  10.629   7.592   1.348  0.2152 -0.2425  0.1391
 2477W        W11957   7.061   2.848   8.918 -0.1702 -0.0727 -0.1335
 2478W        W11958   6.185   0.432   1.387  0.2834 -0.1840 -0.0797
 2479W        W11959   5.996   0.881   8.739 -0.1469 -0.1195  0.0887
 2480W        W11960   9.424   7.593   2.776 -0.1024  0.1081 -0.0588
 2481W        W11961   5.938   5.852   7.964  0.1597  0.2599 -0.0975
 2482W        W11962  12.638   7.221   7.342  0.0833 -0.1073 -0.2056
 2483W        W11963   6.880   2.298   7.416  0.0695  0.2172  0.1511
 2484W        W11964   4.140   5.679   2.478  0.0497 -0.0188 -0.1150
 2485W        W11965  10.799   4.186   7.730  0.1011 -0.1515  0.1177
 2486W        W11966   8.403   6.295   7.448 -0.0618  0.0371 -0.0942
 2487W        W11967  12.267   1.874   6.286 -0.1810 -0.0675  0.1259
 2488W        W11968   2.381  11.499   2.014  0.1146 -0.2348  0.1072
 2489W        W11969   3.316   7.773   7.514  0.0151 -0.0259 -0.1937
 2490W        W11970   6.870   7.290   6.746  0.1675 -0.1540  0.0606
 2491W        W11971   7.005   5.230   0.336 -0.2000  0.0641  0.0259
 2492W        W11972   9.504   3.206   6.818  0.1306  0.1026 -0.1055
 2493W        W11973  10.692   9.069   0.108 -0.0720  0.2129  0.0289
 2494W        W11974   6.098   1.863   0.271  0.0036  0.3711  0.1066
 2495W        W11975   9.350   2.893   2.234  0.0326 -0.1379 -0.1153
 2496W        W11976   3.467   0.858   1.273  0.4498  0.1395  0.2808
 2497W        W11977   3.958   2.700   8.763  0.3089 -0.1242  0.0832
 2498W        W11978   3.683   7.345   7.856  0.2106  0.1880 -0.0849
 2499W        W11979   4.983   0.552   2.771 -0.1250 -0.1692  0.2221
 2500W        W11980   7.431   4.349   8.784 -0.1302 -0.0149 -0.0004
 2501W        W11981  10.518   5.100   6.824 -0.0727  0.2096 -0.0149
 2502W        W11982   5.831   9.330   7.484 -0.0574 -0.4730  0.0123
 2503W        W11983   9.149   5.177   0.098 -0.2399  0.0317  0.0862
 2504W        W11984  13.516   7.540   7.060  0.2757 -0.2002  0.1820
 2505W        W11985   7.729  15.148   0.881  0.0326 -0.2891 -0.2300
 2506W        W11986   8.942   4.898   8.439 -0.0736 -0.2784 -0.2675
 2507W        W11987   5.909   9.285   0.222 -0.0336  0.0327 -0.4031
 2508W        W11988  11.215   1.483   8.026 -0.1643  0.2013 -0.1424
 2509W        W11989   9.904   7.842   8.567 -0.0582  0.0007  0.2086
 2510W        W11990   3.187   0.135   1.302  0.1948 -0.0772  0.0359
 2511W        W11991  10.249   2.413   1.962 -0.1122  0.2095 -0.0914
 2512W        W11992   9.480   4.186   8.612 -0.2135  0.1954 -0.0922
 2513W        W11993   8.253   6.565   8.842 -0.0725  0.1143 -0.2210
 2514W        W11994   9.489   7.232   8.014  0.0175  0.2574 -0.1001
 2515W        W11995  11.056   2.975   8.068  0.0597 -0.0318 -0.0778
 2516W        W11996   7.044   5.565   1.452  0.1108  0.1124 -0.1804
 2517W        W11997   7.114   8.745   8.123 -0.0023 -0.0174  0.1592
 2518W        W11998   8.142   7.824   7.936 -0.1097  0.4730  0.1035
 2519W        W11999   1.327   0.658   7.224 -0.3119  0.1254 -0.3258
 2520W        W12000  11.146   2.889   8.590 -0.3724 -0.1819  0.0171
 2521W        W12001  12.077   2.168   6.668  0.0376 -0.0118  0.0649
 2522W        W12002   5.901   4.279   6.460  0.0367 -0.3395  0.1036
 2523W        W12003   8.652   9.355   7.941  0.0671  0.1214  0.1703
 2524W        W12004   9.525   9.444   8.329 -0.3584  0.2859 -0.1554
 2525W        W12005   5.774   7.209   6.974 -0.0785  0.0322  0.1876
 2526W        W12006  13.436   5.138   1.170  0.2971  0.1238  0.3241
 2527W        W12007   5.486   2.613   8.497 -0.0900  0.3696 -0.2139
 2528W        W12008   7.542   2.887   7.173  0.0656  0.2362 -0.3161
 2529W        W12009   6.760   3.503   0.866 -0.0863  0.0898  0.0979
 2530W        W12010   2.131   4.964   8.617  0.0309 -0.0530 -0.0994
 2531W        W12011   5.340   8.994   7.489  0.1523 -0.3306  0.2855
 2532W        W12012   4.804   6.875   0.747  0.2018 -0.0114  0.3374
 2533W        W12013   3.677   4.051   0.067  0.0662 -0.2788 -0.0018
 2534W        W12014   6.847   0.385   8.010  0.2231 -0.0041 -0.4190
 2535W        W12015   7.727   0.148   7.319  0.0359  0.0123  0.2903
 2536W        W12016   4.140   3.443   7.736  0.0536  0.0628 -0.1188
 2537W        W12017  10.303   4.659   8.366  0.0046  0.1800  0.1270
 2538W        W12018   5.415  11.936   7.053 -0.2269  0.1391  0.1373
 2539W        W12019   7.592   2.978   9.002 -0.3855 -0.0880  0.1339
 2540W        W12020   9.602   3.955   8.171  0.4687 -0.3512  0.1503
 2541W        W12021   9.793   7.584   7.652  0.0771 -0.0335  0.0231
 2542W        W12022  13.481   2.913   0.244  0.0360 -0.1741 -0.0804
 2543W        W12023   7.016   4.495   0.602  0.0391  0.1818 -0.3832
 2544W        W12024   9.957   4.861   0.020 -0.2259  0.1581  0.0760
 2545W        W12025   8.717   8.108   0.337  0.0042 -0.2741 -0.0704
 2546W        W12026   8.261   5.640   1.235 -0.0609  0.0394 -0.0593
 2547W        W12027   2.122  10.088   0.204 -0.0003 -0.0136 -0.1407
 2548W        W12028  10.223   1.593   0.741 -0.1711  0.0189  0.0012
 2549W        W12029  13.675   4.353   7.201  0.3175 -0.0023 -0.1185
 2550W        W12030  12.270  10.230   8.262  0.3186 -0.1959  0.0375
 2551W        W12031   5.863   8.298   0.434  0.0165  0.1038  0.0257
 2552W        W12032  12.960   7.561   7.138 -0.1764 -0.1343 -0.1234
 2553W        W12033   4.466   7.298   7.058 -0.2489  0.2704  0.2859
 2554W        W12034   9.230  10.606   8.423  0.0340  0.5223 -0.2678
 2555W        W12035   8.483   5.251   1.997 -0.1953 -0.1383 -0.2887
 2556W        W12036  14.757   5.067   8.280 -0.1274  0.0761 -0.0275
 2557W        W12037  11.903   4.051   8.227  0.0086  0.0982 -0.2517
 2558W        W12038   5.367   4.896   0.987 -0.3247 -0.1728 -0.0012
 2559W        W12039  13.706   4.860   7.087 -0.1569  0.1155 -0.0216
 2560W        W12040   9.453   6.815   8.707  0.0967 -0.2919 -0.2382
 2561W        W12041   1.764   7.110   0.173  0.0071 -0.0178  0.2938
 2562W        W12042  13.240  13.163   7.128  0.0271 -0.2773 -0.3154
 2563W        W12043   9.612   7.522   1.466 -0.0823 -0.1092  0.1270
 2564W        W12044  10.418  10.693   8.400  0.0307  0.0189  0.3806
 2565W        W12045  11.503   6.129   8.034 -0.1677 -0.1106 -0.5081
 2566W        W12046  11.212   6.741   2.099 -0.1202  0.1737  0.1464
 2567W        W12047   7.533   8.542   0.802 -0.0358  0.3132  0.0902
 2568W        W12048   7.334   4.280   7.300 -0.2569 -0.0406 -0.0948
 2569W        W12049  12.037  14.855   6.921 -0.0845  0.1460 -0.2436
 2570W        W12050  13.795   8.738   8.632 -0.0518 -0.0781  0.0913
 2571W        W12051  12.899   9.638   8.092  0.0520 -0.1505 -0.0105
 2572W        W12052  11.900   5.487   8.769  0.0024  0.1992 -0.1558
 2573W        W12053  12.686   7.041   2.386  0.1915  0.0964  0.0033
 2574W        W12054   7.607   5.334   7.305 -0.1169  0.0448  0.0876
 2575W        W12055   7.955  11.146   0.385 -0.0274  0.1630 -0.4263
 2576W        W12056   8.808   6.512   7.837  0.0305 -0.0244 -0.1027
 2577W        W12057   0.870   4.651   8.100 -0.0557 -0.1184 -0.0427
 2578W        W12058  14.100   9.498   8.545  0.1030  0.0820 -0.0939
 2579W        W12059  13.154   6.034   7.596 -0.2264  0.0011 -0.0494
 2580W        W12060   6.747  15.026   8.799  0.1730 -0.3321  0.0976
 2581W        W12061  11.822   0.742   1.361 -0.0435  0.0625  0.0705
 2582W        W12062  11.489  14.236   8.034 -0.1430  0.1659 -0.1242
 2583W        W12063   9.486   1.524   0.127 -0.1366 -0.0547  0.1184
 2584W        W12064   0.744   4.864   1.562  0.0143  0.1233 -0.1473
 2585W        W12065  15.192   8.588   7.248  0.1067 -0.3472  0.0900
 2586W        W12066   6.612   3.177   8.796  0.1328 -0.0773  0.0164
 2587W        W12067  14.861   8.102   8.833 -0.0599 -0.1736  0.0994
 2588W        W12068  11.804   5.905   0.213  0.1056 -0.0343 -0.1393
 2589W        W12069   8.454   3.823   9.065  0.0790  0.2887 -0.0882
 2590W        W12070   9.082   8.390   2.858  0.3086 -0.1282  0.0020
 2591W        W12071  10.057   5.795   1.081  0.2748  0.0701  0.1745
 2592W        W12072   0.897   4.378   7.423  0.0717  0.3739  0.0473
 2593W        W12073   0.849   9.964   7.603  0.1439  0.1244 -0.0501
 2594W        W12074   0.873   3.035   1.888 -0.1897  0.0642 -0.0256
 2595W        W12075  12.758   1.249   7.145  0.1927 -0.1499 -0.1200
 2596W        W12076   1.695   0.186   0.835 -0.1939 -0.1733 -0.2037
 2597W        W12077  13.014   5.842   0.080 -0.2216  0.0934 -0.2729
 2598W        W12078  12.141   3.506   2.578 -0.0370 -0.2764 -0.0051
 2599W        W12079   8.526  13.065   1.945  0.0740 -0.0158 -0.1934
 2600W        W12080   8.530  12.411   1.101 -0.0277 -0.2557  0.1583
 2601W        W12081  12.014  15.174   7.310 -0.3286  0.1983 -0.1047
 2602W        W12082  10.163   5.337   6.591 -0.0681 -0.1799 -0.1522
 2603W        W12083  13.435   5.947   6.988  0.3606 -0.3356 -0.1598
 2604W        W12084  12.567   0.271   7.559 -0.1370 -0.0790 -0.0542
 2605W        W12085  15.122   5.119   0.390  0.1121 -0.0112 -0.2684
 2606W        W12086  13.477   5.608   0.600  0.0396 -0.0914 -0.0569
 2607W        W12087  13.613   1.336   0.284  0.5155 -0.0189  0.1098
 2608W        W12088   7.010  13.964   7.065  0.1337 -0.1414  0.2146
 2609W        W12089  11.081   0.055   1.335 -0.2496 -0.1084 -0.1807
 2610W        W12090  13.166  10.571   8.115 -0.2073  0.0794  0.3018
 2611W        W12091  11.079  13.430   7.074  0.2799 -0.1199  0.0503
 2612W        W12092  10.867   2.293   7.490  0.2072 -0.0884  0.0642
 2613W        W12093   8.836   0.669   1.900  0.4020 -0.3094  0.2090
 2614W        W12094  10.066   5.395   7.172 -0.0989 -0.1699 -0.2289
 2615W        W12095  10.607  10.129   7.841  0.0556  0.1591 -0.1356
 2616W        W12096  14.460   9.736   6.437  0.1864 -0.1641  0.0070
 2617W        W12097   6.048   2.658   8.621  0.1049  0.0349  0.0212
 2618W        W12098   9.768   6.104   8.609  0.0985 -0.0703  0.0136
 2619W        W12099   2.030  14.827   7.879  0.0592  0.0223  0.1031
 2620W        W12100   0.774   4.818   7.632 -0.1585  0.3327  0.2587
 2621W        W12101  11.376   1.662   2.842 -0.1789  0.2885  0.0405
 2622W        W12102   8.949   6.210   1.462 -0.3481  0.2233  0.2817
 2623W        W12103   9.186   6.626   9.091 -0.0093 -0.4008 -0.0257
 2624W        W12104  12.633   7.488   2.654 -0.0815  0.1686  0.3764
 2625W        W12105  10.445   3.797   7.245  0.2081  0.1748  0.0671
 2626W        W12106  11.025   5.060   1.801 -0.0224  0.2368 -0.3793
 2627W        W12107  13.381   4.835   0.395  0.0030 -0.0604 -0.0656
 2628W        W12108   3.051   3.500   0.434  0.2907  0.2637 -0.2562
 2629W        W12109  14.028   7.379   6.678 -0.1313 -0.1850 -0.1449
 2630W        W12110  11.233  11.133   7.294  0.3064  0.0466 -0.0267
 2631W        W12111   1.216  12.948   1.775 -0.3238  0.0246  0.0942
 2632W        W12112  10.733   6.014   6.638 -0.0247  0.1653  0.2829
 2633W        W12113   0.879  15.253   1.045  0.3291  0.2397  0.3779
 2634W        W12114  13.916   5.539   9.047 -0.7776  0.1319 -0.0300
 2635W        W12115   6.082   7.413   7.404  0.1140 -0.2159  0.0398
 2636W        W12116  11.638   0.786   7.415 -0.0657 -0.0339 -0.1507
 2637W        W12117   9.788  10.582   9.053 -0.0020  0.1634 -0.2057
 2638W        W12118   9.080   3.442   7.743  0.1895 -0.2890  0.2345
 2639W        W12119  11.132   1.125   0.086  0.1231 -0.0787  0.0039
 2640W        W12120  12.056   6.005   8.239  0.0297  0.1552 -0.0709
 2641W        W12121   4.337   0.390   6.869  0.1878 -0.4233 -0.2844
 2642W        W12122  14.234  10.017   7.352 -0.2367  0.0023 -0.1367
 2643W        W12123   1.594   5.645   7.089 -0.0273  0.1040  0.1560
 2644W        W12124   9.841   4.280   1.341 -0.0604  0.1208 -0.0865
 2645W        W12125   3.208   5.762   8.558  0.0883 -0.0007 -0.1516
 2646W        W12126  13.786   3.562   1.315  0.2322  0.2944  0.0384
 2647W        W12127  10.501  10.170   0.110 -0.0786 -0.0001  0.1221
 2648W        W12128  12.385   8.030   8.902 -0.0638  0.1179  0.2274
 2649W        W12129   3.991   4.298   0.608 -0.0545 -0.0311  0.0191
 2650W        W12130   8.800   2.709   8.033 -0.0703  0.0111  0.2240
 2651W        W12131  12.725   5.067   2.689  0.0343 -0.0033 -0.2241
 2652W        W12132  11.855   2.850   1.691 -0.1837 -0.1681  0.1522
 2653W        W12133   1.950   2.416   9.010  0.0940  0.1778 -0.0177
 2654W        W12134  10.498   4.512   7.424 -0.0443 -0.2195 -0.2170
 2655W        W12135  15.025   1.255   8.504 -0.2063  0.0824  0.0134
 2656W        W12136  12.286   4.161   8.615 -0.0870  0.0843 -0.2163
 2657W        W12137  12.096   4.212   7.240 -0.1033  0.4039 -0.3003
 2658W        W12138  10.920   3.492   8.033  0.2011 -0.4358  0.0988
 2659W        W12139  13.897  13.446   8.015  0.0475  0.1069 -0.3468
 2660W        W12140   9.258   3.478   8.261 -0.2382 -0.0801 -0.2048
 2661W        W12141  15.302   4.985   6.783  0.3379  0.1287 -0.2179
 2662W        W12142   7.893   2.676   1.498 -0.2180  0.1195 -0.0581
 2663W        W12143  11.248  14.239   0.669  0.0525  0.1304 -0.2380
 2664W        W12144  14.755   2.319   1.787 -0.2899  0.4798 -0.1071
 2665W        W12145  14.059   4.538   7.441  0.1984  0.2199  0.2237
 2666W        W12146   1.104   5.937   6.990  0.2104 -0.2074  0.3238
 2667W        W12147  14.137   6.854   0.190  0.0486  0.1023 -0.2013
 2668W        W12148  14.757   4.828   1.407 -0.2695  0.0317 -0.3146
 2669W        W12149  13.659   6.067   0.941 -0.0568 -0.2656 -0.0980
 2670W        W12150  10.491   7.306   8.879  0.0412  0.2231 -0.1142
 2671W        W12151  10.935   4.227   8.590  0.1571  0.1509 -0.0400
 2672W        W12152  13.622   4.719   1.415  0.0182  0.1431 -0.0163
 2673W        W12153  14.239   2.696   0.572  0.1480 -0.1364 -0.1216
 2674W        W12154  12.590   6.079   7.718  0.2245  0.0326 -0.0141
 2675W        W12155   4.714  10.781   0.453 -0.0216  0.0129 -0.0617
 2676W        W12156  14.592   5.051   0.519 -0.1103 -0.0099 -0.2221
 2677W        W12157  11.053   7.320   1.351  0.2106 -0.0363  0.2124
 2678W        W12158   5.005   8.212   7.682 -0.1782  0.1797  0.4158
 2679W        W12159  12.040   0.941   1.790  0.3194  0.1718 -0.1429
 2680W        W12160  12.121  13.534   8.594  0.1202  0.0329 -0.0460
 2681W        W12161  14.098   0.655   7.195 -0.2939 -0.3083  0.2133
 2682W        W12162   2.364   5.763   6.768  0.0158  0.1240 -0.0422
 2683W        W12163  15.098   3.743   7.820  0.0176 -0.0433  0.0208
 2684W        W12164   9.634   6.994   1.532  0.2685 -0.3555  0.0971
 2685W        W12165  11.742   3.531   9.089 -0.0356  0.2200 -0.0524
 2686W        W12166  14.523   5.634   0.766  0.3008 -0.0835  0.0238
 2687W        W12167  14.087   2.587   7.188 -0.0066  0.1345 -0.0972
 2688W        W12168   8.328   3.201   8.348 -0.1466 -0.3321 -0.1859
 2689W        W12169   9.399   5.435   0.509 -0.0533 -0.1447 -0.0740
 2690W        W12170  11.110   5.045   8.149 -0.2804  0.2038  0.0224
 2691W        W12171  11.337   5.007   1.237 -0.2244  0.1038 -0.1122
 2692W        W12172  14.192  10.846   8.009 -0.0741 -0.3395  0.1573
 2693W        W12173  13.372  13.873   6.587 -0.0455 -0.1661  0.0675
 2694W        W12174  12.873  13.966   7.938 -0.5895 -0.2860  0.2954
 2695W        W12175  14.407   7.744   1.668 -0.0469  0.1983  0.0126
 2696W        W12176   9.600   5.043   0.311 -0.0030  0.2034  0.3834
 2697W        W12177  10.066   5.315   0.189  0.0092  0.0143 -0.1945
 2698W        W12178  14.431   2.724   7.549  0.1359  0.2438  0.2108
 2699W        W12179  11.560   2.985   1.187  0.0510  0.0922  0.0290
 2700W        W12180   2.523   5.912   1.457  0.1527  0.1539 -0.1674
 2701W        W12181  12.187   8.618   0.577 -0.0531 -0.0925  0.1994
 2702W        W12182  12.570   0.116   1.208 -0.0538  0.0951  0.0416
 2703W        W12183  14.034   7.450   1.417 -0.0211 -0.1345 -0.2178
 2704W        W12184   7.096  10.325   0.802  0.1481 -0.0030 -0.1498
 2705W        W12185   9.315   0.825   7.954 -0.2746 -0.0693 -0.1053
 2706W        W12186   3.285   1.128   1.846 -0.2165 -0.0058 -0.2138
 2707W        W12187  12.868   0.652   8.826  0.1762 -0.2194 -0.3092
 2708W        W12188   4.450   4.168   0.839 -0.0530 -0.2073 -0.0765
 2709W        W12189   8.596   8.336   7.478  0.0857  0.2052 -0.1649
 2710W        W12190   2.503   3.510   0.745 -0.0094 -0.0100  0.1069
 2711W        W12191   5.092   1.895   7.973  0.1609 -0.1423  0.3906
 2712W        W12192   6.972   7.146   8.928 -0.1382 -0.2022 -0.1786
 2713W        W12193   5.916   1.147   2.106 -0.3821 -0.1731  0.2052
 2714W        W12194   9.329   5.475   6.583  0.0110  0.0025 -0.2639
 2715W        W12195   0.221   0.791   8.021  0.0210  0.4386  0.1995
 2716W        W12196  11.808   6.398   0.389  0.0754 -0.2185 -0.0382
 2717W        W12197   8.844   2.255   1.893 -0.3828 -0.0451  0.2512
 2718W        W12198   1.029   3.725   0.662 -0.3184  0.0926  0.1030
 2719W        W12199  15.030  12.611   7.233 -0.0186 -0.0345  0.2747
 2720W        W12200  11.783   9.624   8.926 -0.0391  0.0194  0.1210
 2721W        W12201  11.342   8.926   2.831 -0.0809  0.3773 -0.2506
 2722W        W12202  12.840   4.354   1.178  0.0007 -0.0141  0.2076
 2723W        W12203   3.093   5.255   0.402 -0.0900 -0.0790  0.1129
 2724W        W12204   6.738   5.073   8.869 -0.1330 -0.3506 -0.0180
 2725W        W12205  10.435  12.291   0.460 -0.1107  0.2461  0.2012
 2726W        W12206  14.373   7.435   0.362 -0.2374  0.0311  0.3384
 2727W        W12207   0.574   6.794   8.443  0.2196  0.1859 -0.0712
 2728W        W12208  13.944   1.108   1.282 -0.0351  0.1496 -0.1274
 2729W        W12209  12.852   0.903   7.727 -0.1605 -0.0776 -0.0562
 2730W        W12210  12.718   4.858   8.960 -0.0410 -0.1652  0.1168
 2731W        W12211  11.536   7.556   1.164  0.1142  0.0659 -0.2789
 2732W        W12212   3.963   3.268   0.593  0.0663  0.0020  0.0637
 2733W        W12213   8.524   6.163   0.584  0.3126 -0.1235  0.1121
 2734W        W12214   9.896   2.570   7.409 -0.1162  0.0810 -0.0626
 2735W        W12215   7.632   6.517   2.072  0.1794  0.0168  0.1586
 2736W        W12216   9.036   1.658   7.930 -0.0894  0.2901  0.2732
 2737W        W12217  11.734   4.490   7.343  0.3831  0.2261  0.1028
 2738W        W12218   8.409   3.266   6.017 -0.1421  0.0356 -0.1909
 2739W        W12219  11.878   2.946   7.569 -0.0027  0.0037  0.0870
 2740W        W12220  15.329   5.549   1.259 -0.0588 -0.1802  0.2101
 2741W        W12221  12.659   2.820   8.790  0.0330  0.1163  0.1826
 2742W        W12222  11.083   8.408   1.222 -0.3369 -0.0579 -0.0541
 2743W        W12223   6.098   5.981   8.506 -0.0189  0.3041 -0.1270
 2744W        W12224   0.075   5.907   1.859  0.1463  0.0834  0.1144
 2745W        W12225   0.438   1.826   8.080 -0.0482 -0.0230  0.1951
 2746W        W12226  10.768   3.298   0.614  0.1661 -0.0703 -0.1116
 2747W        W12227  12.693   5.463   0.626 -0.0832  0.0920  0.1351
 2748W        W12228  12.896   2.604   0.094  0.0394 -0.1141 -0.2097
 2749W        W12229  11.908   8.164   8.836 -0.0879 -0.3204 -0.2815
 2750W        W12230  12.567   0.994   0.905 -0.2594  0.1784 -0.2019
 2751W        W12231  13.283   6.747   1.823 -0.1031 -0.3020  0.3556
 2752W        W12232  13.841   6.763   1.879  0.0860  0.6386  0.0162
 2753W        W12233   9.909   5.096   1.703 -0.0081  0.2815 -0.0369
 2754W        W12234   9.066   3.586   6.984 -0.0884 -0.2723 -0.0640
 2755W        W12235  11.345   5.755   1.056  0.0780 -0.0276  0.1678
 2756W        W12236   5.917   1.383   8.621 -0.3597  0.2011 -0.3210
 2757W        W12237  10.405   1.314   8.330 -0.1464  0.1178 -0.2547
 2758W        W12238   1.896  12.590   9.093 -0.0998  0.1044 -0.0365
 2759W        W12239  11.540   6.221   1.384 -0.2807 -0.0893  0.0123
 2760W        W12240   0.637   2.772   7.879 -0.2877  0.0507  0.1708
 2761W        W12241  15.408   2.867   0.149  0.4024  0.1146  0.1298
 2762W        W12242   1.130   6.519   7.825  0.2369 -0.1620 -0.0369
 2763W        W12243   9.342   7.829   6.330 -0.0924  0.2436  0.0719
 2764W        W12244   2.827  15.073   8.807 -0.3754 -0.0172  0.0556
 2765W        W12245  10.811  12.384   7.908 -0.1401  0.4080  0.1642
 2766W        W12246   3.154   3.150   8.635 -0.1251 -0.0198  0.2963
 2767W        W12247   1.547   6.724   7.428  0.2758  0.1184 -0.2518
 2768W        W12248  14.773   4.477   0.922  0.0232  0.1305 -0.0973
 2769W        W12249  12.069   2.321   8.890 -0.3731 -0.1647  0.2831
 2770W        W12250   0.403   7.226   8.690 -0.0718 -0.1393 -0.1724
 2771W        W12251  12.799   8.929   7.201 -0.2742  0.4200  0.0634
 2772W        W12252  14.484   7.943   6.154 -0.0276 -0.0178  0.0653
 2773W        W12253  13.797  11.009   8.771  0.1221  0.0057  0.0743
 2774W        W12254  10.727   2.291   8.733 -0.0898  0.1219  0.0138
 2775W        W12255   1.149   5.563   6.258  0.0816 -0.1059 -0.0175
 2776W        W12256   8.468   0.710   8.532 -0.0024 -0.1685 -0.3946
 2777W        W12257  14.152   9.169   7.877  0.1465 -0.0655 -0.3383
 2778W        W12258   8.350  13.404   6.747  0.1589  0.3043  0.0408
 2779W        W12259  15.414   0.309   8.365 -0.0027  0.2152 -0.0009
 2780W        W12260   1.604   7.602   0.290 -0.1337 -0.1358 -0.1495
 2781W        W12261   2.324   7.701   8.318 -0.1099  0.2415  0.0197
 2782W        W12262  12.443   2.815   8.310 -0.3370  0.0124 -0.1139
 2783W        W12263  13.490   2.047   2.083 -0.0417 -0.1306  0.3932
 2784W        W12264  15.314   3.813   6.578 -0.4525  0.2403 -0.2522
 2785W        W12265  13.185   5.337   0.252  0.0857  0.2676 -0.0436
 2786W        W12266  10.538   2.901   2.660  0.2429  0.0258 -0.1217
 2787W        W12267  11.414   1.308   0.500  0.1328 -0.1063  0.0061
 2788W        W12268   0.226   4.800   1.495  0.1066 -0.1893  0.3194
 2789W        W12269  12.907   5.624   7.742 -0.0083  0.0242  0.0104
 2790W        W12270   0.220   0.345   8.921  0.0945 -0.6599  0.2091
 2791W        W12271  13.602   5.388   2.165 -0.1837 -0.1112  0.2435
 2792W        W12272  14.134   9.677   1.485  0.3370  0.0320 -0.1603
 2793W        W12273  10.711   5.192   8.476 -0.1968  0.0585  0.1809
 2794W        W12274   1.858   4.062   8.757 -0.0589 -0.0223  0.0555
 2795W        W12275   1.537   2.176   0.872  0.1710  0.0031 -0.0125
 2796W        W12276   5.001   6.298   8.992  0.0818 -0.1009 -0.1954
 2797W        W12277  13.719   1.840   8.491  0.2461  0.0423 -0.0044
 2798W        W12278  15.340   2.827   0.679 -0.2044 -0.0107  0.0455
 2799W        W12279  11.973  14.864   8.510 -0.0272 -0.1391 -0.2791
 2800W        W12280  13.834   6.201   7.470 -0.1443  0.0501  0.1846
 2801W        W12281   7.297   2.708   8.188  0.0119 -0.2594  0.2204
 2802W        W12282  13.026   1.964   7.615 -0.2730  0.4339 -0.2778
 2803W        W12283  11.216   0.572   0.857 -0.0867  0.1364  0.4394
 2804W        W12284   9.185   0.145   7.050 -0.0304  0.1065  0.1025
 2805W        W12285   9.584   6.730   7.754  0.4395  0.1696  0.0767
 2806W        W12286  13.346   2.903   1.882  0.1679 -0.0704 -0.2302
 2807W        W12287   2.522   3.414   6.865  0.0344 -0.0557 -0.2549
 2808W        W12288   8.081   2.406   7.686 -0.2125  0.1566  0.2727
 2809W        W12289   0.301   5.619   7.231  0.4446  0.3138 -0.1210
 2810W        W12290  12.725   5.821   6.413  0.2177  0.0230  0.0780
 2811W        W12291  12.571  11.212   7.428 -0.1334  0.3491  0.0480
 2812W        W12292   2.009   7.460   3.052  0.0251  0.5927  0.0348
 2813W        W12293  11.338   8.700   7.665  0.4515 -0.2271 -0.0751
 2814W        W12294   2.380   7.755   8.794 -0.2447 -0.3899 -0.2521
 2815W        W12295   3.847  11.209   2.169 -0.0614 -0.0627  0.2018
 2816W        W12296  13.004   4.591   7.738 -0.0786  0.0074  0.1827
 2817W        W12297  10.449   7.543   7.033 -0.0576  0.1887 -0.0897
 2818W        W12298  10.802   4.695   8.372  0.1399 -0.0759 -0.1320
 2819W        W12299   4.552   1.371   8.535  0.0134 -0.1626 -0.3742
 2820W        W12300  13.952  10.238   1.702  0.0022  0.1448  0.0927
 2821W        W12301  15.013   1.764   7.414  0.1432 -0.1244 -0.1824
 2822W        W12302  14.424   5.807   1.657  0.1654  0.0773  0.2434
 2823W        W12303   0.498  14.598   8.127 -0.0620 -0.0790 -0.1278
 2824W        W12304   0.886   6.192   1.760 -0.0640 -0.2186  0.1921
 2825W        W12305   9.060   2.296   9.045  0.0960  0.0863  0.0661
 2826W        W12306  13.748   1.900   7.263  0.2659  0.0793  0.3077
 2827W        W12307  12.513   8.938   0.351  0.1339 -0.2029  0.1119
 2828W        W12308   4.010   7.305   8.761 -0.0465  0.0510 -0.1730
 2829W        W12309   0.291   1.765   2.044 -0.3094  0.1077 -0.3138
 2830W        W12310   0.095   3.746   0.221  0.3656 -0.1078  0.1568
 2831W        W12311  10.824   0.214   0.955 -0.0208 -0.0068  0.1852
 2832W        W12312  13.406   6.831   6.935 -0.0395  0.0539  0.0693
 2833W        W12313   1.037  13.728   7.745 -0.1807  0.0303  0.0435
 2834W        W12314   2.742   5.921   1.058  0.2151  0.0000 -0.2330
 2835W        W12315   5.893   4.353   8.452  0.2104 -0.1043 -0.0016
 2836W        W12316   4.381   3.638   0.709 -0.0302  0.1312 -0.1049
 2837W        W12317  12.544   4.265   7.569 -0.0296  0.0201  0.1218
 2838W        W12318   9.488  13.198   1.857  0.0205  0.0909  0.1478
 2839W        W12319   3.454   5.396   7.364  0.0698 -0.1376  0.0991
 2840W        W12320  10.686   1.948   6.821  0.4467  0.1775 -0.0406
 2841W        W12321  14.616   8.567   2.248  0.1941 -0.2152  0.0081
 2842W        W12322  14.284   1.882   8.553 -0.1288  0.1472 -0.1223
 2843W        W12323  11.479   9.995   2.515  0.4506 -0.1197  0.2192
 2844W        W12324   1.774  11.350   8.622  0.0030 -0.0162 -0.1437
 2845W        W12325   1.505   3.789   0.798  0.0593  0.0823 -0.0096
 2846W        W12326  13.700   0.395   7.291 -0.2999  0.0323 -0.1854
 2847W        W12327   7.009   3.451   1.431 -0.0381  0.1120 -0.0778
 2848W        W12328  10.116   1.737   8.494  0.2039  0.0020 -0.2396
 2849W        W12329  13.028   5.842   0.634 -0.1676 -0.4236 -0.2455
 2850W        W12330  14.816   5.200   8.792 -0.0858  0.1260  0.0900
 2851W        W12331  13.962  13.680   6.356 -0.1678 -0.3912 -0.1783
 2852W        W12332   7.524   2.692   6.262 -0.0061 -0.4711  0.1702
 2853W        W12333  12.016   2.432   0.404  0.0196  0.0204  0.1497
 2854W        W12334  14.552   4.936   9.091  0.1774  0.0749 -0.0654
 2855W        W12335  12.276  11.591   7.140  0.0561 -0.1228 -0.1010
 2856W        W12336  13.674   6.258   0.017 -0.1352 -0.2429  0.2639
 2857W        W12337  15.436   8.038   2.696  0.0772 -0.2035  0.0180
 2858W        W12338  13.618   9.886   0.545  0.2397  0.0355 -0.0181
 2859W        W12339  10.430   4.507   2.181  0.0598  0.1252  0.0844
 2860W        W12340  15.057   5.709   8.745 -0.0004 -0.0699  0.1983
 2861W        W12341  11.433   5.569   8.908  0.2423 -0.0992 -0.1569
 2862W        W12342   5.687   7.672   7.284  0.1404  0.0035  0.0838
 2863W        W12343  15.168   2.962   8.303  0.1636  0.0150 -0.1714
 2864W        W12344  12.965   3.007   0.900 -0.1137 -0.0137 -0.0709
 2865W        W12345   2.103   1.548   7.985  0.0626  0.0916  0.1194
 2866W        W12346   0.579  10.370   1.142  0.0237 -0.1848  0.0208
 2867W        W12347  13.880   2.823   6.325 -0.2543 -0.1480 -0.0649
 2868W        W12348   0.986   2.414   7.665 -0.0357  0.0263 -0.4101
 2869W        W12349  14.240   4.069   1.528 -0.2640  0.0316  0.3070
 2870W        W12350  15.084   6.688   8.555  0.0860 -0.0113  0.1373
 2871W        W12351  14.056   9.840   2.004 -0.2982  0.1485  0.2789
 2872W        W12352  14.753   1.773   8.550  0.1429  0.2472 -0.3992
 2873W        W12353   0.735   8.521   8.683  0.0338  0.0865 -0.3128
 2874W        W12354  12.765   5.860   1.652  0.1356  0.1605  0.0518
 2875W        W12355   2.358   8.204   8.335  0.1642 -0.0989 -0.0361
 2876W        W12356   3.489   3.616   1.820 -0.2060 -0.2045  0.2467
 2877W        W12357  12.311   5.944   7.257  0.0006 -0.1541  0.1164
 2878W        W12358   5.185   4.809   6.983 -0.1051 -0.0014  0.4715
 2879W        W12359   9.762   0.468   8.185  0.0553 -0.0268  0.3517
 2880W        W12360   0.938   5.396   7.810 -0.0599  0.1919 -0.2555
 2881W        W12361   2.958   8.590   1.195  0.0102  0.1472 -0.0848
 2882W        W12362   2.440  10.287   1.847 -0.0670  0.0882 -0.1124
 2883W        W12363   5.985   6.692   8.983  0.1141  0.1255  0.1374
 2884W        W12364  15.122  12.433   8.527 -0.0958 -0.2660  0.0034
 2885W        W12365   1.475   9.077   7.516  0.0981  0.1507  0.0178
 2886W        W12366   3.261   2.966   7.781 -0.0667 -0.1430  0.2305
 2887W        W12367  12.959  10.927   0.337  0.1415  0.3113 -0.0351
 2888W        W12368  14.927   6.562   1.282  0.0003 -0.1514 -0.0794
 2889W        W12369   8.568   8.958   8.308 -0.1344 -0.0178  0.0263
 2890W        W12370  10.947  12.734   0.643  0.0201 -0.0704  0.1157
 2891W        W12371   3.902   7.691   9.056  0.1406 -0.3309 -0.2167
 2892W        W12372  12.075   9.733   7.058  0.1524  0.1433 -0.2176
 2893W        W12373  15.338  11.147   7.405 -0.5055 -0.1888 -0.2221
 2894W        W12374   0.693   8.710   7.338 -0.0167 -0.1280  0.0114
 2895W        W12375   2.985  11.394   8.941 -0.2971  0.0334  0.1980
 2896W        W12376  15.120  12.355   8.070 -0.0542  0.0401  0.1020
 2897W        W12377   1.701   9.361   6.619 -0.0784 -0.1252 -0.2745
 2898W        W12378  12.673  13.054   8.094  0.1472  0.1322  0.2983
 2899W        W12379   5.016   5.263   6.819  0.1635 -0.3338  0.1055
 2900W        W12380   4.229   6.124   0.230 -0.0632 -0.1996  0.2239
 2901W        W12381   7.040   5.794   0.911  0.0484 -0.1201 -0.0097
 2902W        W12382   5.134   7.454   2.015 -0.3127 -0.2775  0.0265
 2903W        W12383  12.177   9.486   2.018 -0.0623  0.1126 -0.0715
 2904W        W12384   4.199   7.584   6.703  0.0337  0.1376  0.2391
 2905W        W12385   6.631   7.243   8.353  0.1151  0.0642 -0.3043
 2906W        W12386   6.675  13.066   1.198  0.3385 -0.1794 -0.1132
 2907W        W12387   2.554   8.970   9.070 -0.2134  0.0442  0.0154
 2908W        W12388  12.332  10.570   0.710 -0.1955 -0.0769  0.1660
 2909W        W12389   5.425   6.635   8.888 -0.1831  0.0338 -0.2137
 2910W        W12390   0.995   7.331   2.472  0.1130  0.0045  0.0501
 2911W        W12391   1.344   4.851   1.219  0.0165 -0.2515 -0.0481
 2912W        W12392  13.273   8.710   7.486 -0.2055 -0.1521 -0.2157
 2913W        W12393   3.537  10.668   1.502 -0.0187  0.0179  0.0272
 2914W        W12394  14.875  13.964   8.476  0.0307  0.0201  0.1497
 2915W        W12395   0.668   5.822   6.059  0.2066  0.1852  0.0332
 2916W        W12396   6.376   7.008   6.969  0.1504 -0.1847  0.0426
 2917W        W12397   1.187   7.451   6.054  0.1672 -0.2091  0.0696
 2918W        W12398   5.663   4.748   8.641 -0.1831  0.0913 -0.0596
 2919W        W12399   9.965  10.108   8.962 -0.2714  0.1561 -0.1625
 2920W        W12400   0.325   7.652   7.674  0.0586  0.1394 -0.0740
 2921W        W12401   0.758   9.010   7.785 -0.0155 -0.1643 -0.2528
 2922W        W12402  11.246   3.959   0.458  0.1108  0.0927 -0.1370
 2923W        W12403   7.905   4.055   2.038  0.0421  0.0260 -0.0926
 2924W        W12404  12.385   8.140   0.476 -0.1112 -0.1211  0.0340
 2925W        W12405  14.490   8.775   8.064 -0.1108  0.0229  0.5041
 2926W        W12406   2.613  12.334   0.877 -0.2703 -0.0198  0.2310
 2927W        W12407  12.938  14.694   7.192 -0.2190 -0.1238  0.0033
 2928W        W12408  14.860  10.172   1.865  0.1415  0.0178  0.0714
 2929W        W12409  14.136  12.208   7.110  0.2417 -0.1266 -0.3452
 2930W        W12410   2.930   7.567   7.131  0.2973 -0.2898 -0.0213
 2931W        W12411  13.570   8.937   0.815  0.1160  0.1562  0.0646
 2932W        W12412   5.407   9.413   7.181 -0.3879 -0.0153 -0.0121
 2933W        W12413   5.603  10.916   7.232 -0.1467  0.2067 -0.0226
 2934W        W12414  12.648  12.370   8.026  0.0137 -0.0832  0.0925
 2935W        W12415   2.581   4.623   2.018 -0.2513  0.0003  0.3319
 2936W        W12416   2.081   9.191   2.522 -0.0268 -0.0582 -0.2027
 2937W        W12417   0.562  15.084   1.717 -0.0251 -0.1127 -0.2984
 2938W        W12418   7.920   5.755   8.437 -0.1029 -0.2842 -0.0944
 2939W        W12419  15.278   7.320   8.130  0.2126  0.0152  0.1133
 2940W        W12420  13.832   5.834   1.428  0.1223 -0.1812  0.0340
 2941W        W12421   8.771   7.684   6.258  0.1578 -0.1552  0.0956
 2942W        W12422  14.036   6.009   6.277 -0.0242  0.0824 -0.0895
 2943W        W12423   2.122   8.472   0.868 -0.1343  0.1229 -0.3295
 2944W        W12424  10.561   8.085   7.656  0.2604 -0.0932  0.1359
 2945W        W12425   5.968  10.087   6.876 -0.1993 -0.1678  0.3386
 2946W        W12426   1.719   7.729   7.456  0.0006 -0.2029  0.2980
 2947W        W12427   0.214  11.490   7.370 -0.3023 -0.2119 -0.2346
 2948W        W12428   0.790   6.322   8.180 -0.0895  0.3206  0.1053
 2949W        W12429   1.605   4.778   7.518  0.0270 -0.1722 -0.0657
 2950W        W12430   0.911   4.455   1.789  0.0387 -0.0332  0.0882
 2951W        W12431   2.628  10.103   0.490 -0.2820  0.1156  0.3526
 2952W        W12432  13.365  11.813   7.997 -0.2130  0.1055  0.1824
 2953W        W12433   1.910  12.366   8.210  0.0115  0.0017  0.1527
 2954W        W12434   0.412   6.114   0.691 -0.2461 -0.1145  0.0742
 2955W        W12435   3.631  10.961   7.693 -0.2180 -0.2130 -0.2320
 2956W        W12436   5.251   8.776   2.019  0.0691  0.2383  0.0290
 2957W        W12437  14.563  11.414   1.148  0.1186 -0.0809 -0.2189
 2958W        W12438   6.859   8.749   6.842  0.0903 -0.2848 -0.1944
 2959W        W12439   3.415   9.919   7.671 -0.0284  0.2583 -0.0296
 2960W        W12440   0.367   8.210   1.807  0.2567 -0.0728  0.3072
 2961W        W12441   2.391   6.185   8.230  0.2621  0.2060  0.0694
 2962W        W12442   2.180  11.450   8.911 -0.3494  0.0815 -0.1453
 2963W        W12443   2.280  11.424   8.454  0.2486 -0.1258 -0.1036
 2964W        W12444  14.972   4.026   0.994 -0.0508  0.1353  0.1272
 2965W        W12445   2.709  10.325   1.329 -0.0699  0.2866 -0.1500
 2966W        W12446   0.104   9.356   7.521 -0.0551  0.2594  0.0065
 2967W        W12447  14.465  10.584   0.753  0.0419 -0.0421 -0.0976
 2968W        W12448   4.569   9.379   2.080 -0.2951 -0.0894  0.3229
 2969W        W12449  15.368  14.077   8.389 -0.0817  0.2724  0.2347
 2970W        W12450   1.833   9.327   0.465 -0.1875 -0.1200 -0.1612
 2971W        W12451   1.188  13.161   8.318  0.0315 -0.1089  0.1022
 2972W        W12452   1.486   7.571   2.181 -0.0620  0.0463  0.0010
 2973W        W12453   2.747   7.785   6.293  0.2637 -0.4566  0.2391
 2974W        W12454   9.631   6.368   8.988 -0.2981  0.0303  0.1364
 2975W        W12455  12.448   8.478   0.120  0.1042 -0.0965  0.0625
 2976W        W12456   2.943   4.782   1.331  0.4274 -0.2265  0.0723
 2977W        W12457  13.061   4.531   0.644  0.1142 -0.0334 -0.0909
 2978W        W12458  10.038   8.291   8.778 -0.0041  0.4013  0.0311
 2979W        W12459  12.641   3.784   8.860  0.2642  0.2277  0.0291
 2980W        W12460  12.540   8.744   1.803 -0.0655 -0.1793  0.2153
 2981W        W12461   2.180  11.335   0.706  0.1143 -0.0367 -0.3017
 2982W        W12462   2.210  10.278   1.368 -0.0991 -0.0998 -0.1677
 2983W        W12463  14.683   4.735   8.646 -0.2202 -0.0112  0.0148
 2984W        W12464   2.021   5.030   7.261 -0.3415  0.3317  0.1278
 2985W        W12465   3.374   6.141   1.316  0.1262 -0.1951 -0.2355
 2986W        W12466  12.689   9.252   1.965  0.2307 -0.1075 -0.2962
 2987W        W12467   0.385   3.981   8.400  0.6648 -0.1237 -0.2077
 2988W        W12468   5.051  11.023   0.965  0.1731 -0.6281  0.0799
 2989W        W12469  15.261   6.880   7.817 -0.0112  0.1370  0.0325
 2990W        W12470   4.854  10.661   7.431 -0.0225 -0.0839  0.0931
 2991W        W12471   0.274  10.918   1.572  0.0967 -0.2582 -0.0900
 2992W        W12472   4.323   5.034   1.886  0.0727  0.0306 -0.5059
 2993W        W12473  14.989  11.852   8.677  0.0613 -0.0964  0.0644
 2994W        W12474   0.039  10.220   7.573  0.2744  0.1131  0.0605
 2995W        W12475  15.044   7.746   7.422  0.1588  0.1571 -0.0596
 2996W        W12476   0.804  10.167   8.426  0.1624 -0.1214  0.3022
 2997W        W12477  14.026   4.780   2.759  0.3362 -0.0427 -0.0074
 2998W        W12478   3.583   8.018   8.624 -0.2034 -0.0853  0.5379
 2999W        W12479   3.496   3.213   0.532 -0.0945 -0.3990  0.0056
 3000W        W12480   0.221   4.585   8.932 -0.4882  0.1200 -0.0490
 3001W        W12481   6.245   2.816   0.894  0.0429  0.2878  0.2449
 3002W        W12482   3.223   7.702   8.836  0.0537 -0.0949 -0.0999
 3003W        W12483   7.344   6.612   1.634  0.0002 -0.1388 -0.1219
 3004W        W12484   7.981   4.801   7.655 -0.0251 -0.0893 -0.0364
 3005W        W12485  12.996   6.264   1.728  0.3972  0.0730  0.0542
 3006W        W12486  13.665  11.036   6.011  0.1697 -0.0910 -0.0816
 3007W        W12487   3.632  10.842   8.222 -0.1778 -0.0218  0.1225
 3008W        W12488  14.524   6.477   0.501 -0.0805 -0.1335  0.0841
 3009W        W12489   1.917   7.715   7.929  0.1444 -0.3449  0.2706
 3010W        W12490   6.584  14.897   7.841 -0.0083 -0.0987 -0.2569
 3011W        W12491  15.137  11.675   7.247 -0.0774 -0.0000  0.0590
 3012W        W12492   4.096   8.088   7.794 -0.0520 -0.0425 -0.1017
 3013W        W12493  12.741  10.700   7.573 -0.0910  0.0879 -0.1746
 3014W        W12494   2.716   5.002   7.935  0.0471 -0.0015 -0.1389
 3015W        W12495   2.690   6.092   0.598  0.1441 -0.1799 -0.0793
 3016W        W12496   3.663   4.006   1.390 -0.0773  0.1833  0.1115
 3017W        W12497   4.956  10.234   7.178 -0.5904  0.0095  0.0184
 3018W        W12498   6.270   5.521   8.852 -0.1036  0.0872  0.3627
 3019W        W12499   8.561  12.558   8.326  0.1511 -0.4079  0.0088
 3020W        W12500   4.837   6.275   6.570  0.0102  0.0776 -0.2008
 3021W        W12501   0.219  11.311   0.429 -0.3050 -0.2494 -0.4002
 3022W        W12502   0.635   2.076   7.611  0.0139 -0.1548  0.0346
 3023W        W12503   0.642   6.996   6.871  0.1596  0.0174  0.1426
 3024W        W12504   6.747   4.022   0.661  0.0205  0.2407 -0.0710
 3025W        W12505   0.860   5.672   1.237  0.1195 -0.1448 -0.2028
 3026W        W12506   0.701   6.861   7.867  0.2351 -0.3670  0.1326
 3027W        W12507   0.140   2.920   6.613  0.0856  0.1473 -0.1286
 3028W        W12508   6.554  11.403   0.284 -0.1554  0.0174  0.1960
 3029W        W12509   1.915   7.439   7.106 -0.0213 -0.0641 -0.0643
 3030W        W12510   2.191   4.391   1.069  0.0511  0.0934  0.2354
 3031W        W12511   2.795   9.835   7.660  0.0906 -0.0827 -0.0192
 3032W        W12512  13.365   4.339   8.647 -0.2014  0.0816  0.2950
 3033W        W12513   1.583   8.411   8.819 -0.0921  0.2725  0.0029
 3034W        W12514  14.605  12.874   0.710 -0.1745  0.2079  0.0137
 3035W        W12515   6.453   5.921   7.740  0.0686 -0.0045 -0.0921
 3036W        W12516  10.734   9.030   8.515 -0.0380 -0.0106  0.1941
 3037W        W12517  14.749  10.617   6.857  0.0225  0.0415 -0.1232
 3038W        W12518   1.183   6.997   7.604 -0.2173  0.1501  0.1483
 3039W        W12519   1.139   6.624   1.853 -0.0327  0.2611 -0.3405
 3040W        W12520   5.183   1.195   2.732  0.3195 -0.3115 -0.2562
 3041W        W12521   1.067  10.777   7.010 -0.0441 -0.1658 -0.1556
 3042W        W12522  13.510  11.599   0.036 -0.2221 -0.0054 -0.3399
 3043W        W12523   4.821   6.776   7.823  0.3035 -0.0079  0.1538
 3044W        W12524   8.603   0.115   0.681 -0.4683  0.1801 -0.1340
 3045W        W12525   8.333   0.932   7.980 -0.2035  0.3175 -0.1266
 3046W        W12526  13.684  11.971   7.188  0.0330  0.2756 -0.2963
 3047W        W12527   2.615  15.377   8.377  0.1241  0.0417  0.0089
 3048W        W12528   6.742   4.441   8.306 -0.0101 -0.0236  0.0940
 3049W        W12529   6.523  12.933   7.193  0.2396  0.0065  0.2334
 3050W        W12530   8.084  12.118   8.985 -0.0995  0.1857 -0.1706
 3051W        W12531   2.535  11.451   0.191  0.1231 -0.1488 -0.3462
 3052W        W12532   1.860   7.016   8.283  0.2470  0.1849  0.0924
 3053W        W12533   0.751   8.248   1.414 -0.2913 -0.2396 -0.2267
 3054W        W12534  14.007   6.774   8.359  0.1360  0.3052 -0.1152
 3055W        W12535   0.724   0.429   8.898 -0.1472 -0.1654  0.2053
 3056W        W12536  13.766   7.861   7.435 -0.0842 -0.0569  0.1435
 3057W        W12537   0.627  11.612   0.391  0.2745  0.1506  0.0611
 3058W        W12538  15.155   2.133   7.146 -0.1316 -0.0154  0.2253
 3059W        W12539   0.608   9.805   0.526 -0.1127  0.0938  0.0488
 3060W        W12540  13.331   0.810   6.520  0.2057  0.0379  0.1086
 3061W        W12541  14.463   3.660   1.498  0.0558  0.3138  0.1853
 3062W        W12542   4.271   9.407   7.477 -0.0845 -0.3202  0.3157
 3063W        W12543   4.511  12.272   8.788  0.1140 -0.2394 -0.1660
 3064W        W12544   3.804   7.766   8.119  0.0008  0.2331  0.0662
 3065W        W12545  15.248  10.875   7.834 -0.1934 -0.1550  0.1596
 3066W        W12546   2.344   7.757   7.186 -0.0977  0.0440  0.1316
 3067W        W12547   1.631   5.255   7.580  0.4565 -0.1524 -0.0859
 3068W        W12548   4.937   9.440   8.160 -0.1030  0.1599  0.2009
 3069W        W12549  13.549  12.492   9.063 -0.2753  0.0436 -0.1099
 3070W        W12550  12.874   4.186   8.532  0.2969 -0.2241  0.0897
 3071W        W12551  13.322  12.547   1.626 -0.2731  0.0666  0.0577
 3072W        W12552   1.840   5.967   0.032 -0.0140 -0.0682  0.1718
 3073W        W12553  10.753   5.498   7.196  0.0315 -0.1698 -0.3464
 3074W        W12554   7.210   6.260   2.540  0.2334 -0.0157 -0.1067
 3075W        W12555   7.970   6.710   6.600 -0.0621 -0.2187  0.1092
 3076W        W12556   7.970  11.810   0.684  0.0110 -0.4548 -0.1348
 3077W        W12557   9.422   8.135   7.322  0.3058 -0.2231 -0.0237
 3078W        W12558   5.309  10.418   2.703 -0.1396 -0.2377 -0.2354
 3079W        W12559  10.183   4.190   1.775 -0.4472 -0.1752  0.0537
 3080W        W12560   5.527   5.098   8.259 -0.2574  0.1933 -0.1684
 3081W        W12561   3.059  10.319   7.740  0.2600  0.1524  0.1283
 3082W        W12562   9.460  10.622   6.974 -0.1611 -0.2455  0.2777
 3083W        W12563   6.009   6.351   8.170 -0.0303 -0.3128  0.1707
 3084W        W12564   2.449  11.157   1.155  0.4467  0.3146 -0.1085
 3085W        W12565   2.781   7.440   8.917  0.0879 -0.2991  0.1952
 3086W        W12566   1.768   5.543   8.655  0.1381 -0.2076  0.2093
 3087W        W12567   5.716   5.700   0.399 -0.0716 -0.0515 -0.0575
 3088W        W12568   3.651   6.287   0.386 -0.2030 -0.0978  0.1288
 3089W        W12569   7.302   7.991   8.761  0.1218 -0.2788 -0.0244
 3090W        W12570   5.794   5.224   2.643 -0.2879 -0.1130 -0.2667
 3091W        W12571   6.884   7.853   7.048  0.2556  0.1097  0.0337
 3092W        W12572  11.399   9.556   2.163 -0.0757 -0.0730  0.1950
 3093W        W12573   3.758  13.426   1.683 -0.1926  0.2127  0.1235
 3094W        W12574   4.888  12.175   1.720 -0.1798 -0.1185  0.0904
 3095W        W12575   2.998  10.676   8.113 -0.1689 -0.3498  0.0959
 3096W        W12576   1.326   5.899   0.900  0.1020  0.0715  0.1469
 3097W        W12577   5.235   9.303   6.683  0.1036 -0.0755 -0.0284
 3098W        W12578   2.911  14.252   1.222 -0.1157 -0.1464 -0.0620
 3099W        W12579   4.473  12.370   8.317  0.0672  0.0515 -0.0256
 3100W        W12580   1.383  15.023   1.435 -0.2761  0.0640  0.3902
 3101W        W12581   8.524   1.770   8.884 -0.2235  0.2258 -0.4928
 3102W        W12582   8.040   9.508   6.527  0.0135 -0.0770 -0.0611
 3103W        W12583   8.357   8.164   8.338  0.0264  0.0823  0.2563
 3104W        W12584   5.327  10.547   7.482  0.0707  0.0984 -0.3406
 3105W        W12585   4.722   6.523   7.335 -0.1542 -0.0523 -0.0740
 3106W        W12586   8.610   6.467   1.725  0.1047  0.0875  0.0537
 3107W        W12587   6.495   9.412   9.009 -0.0683  0.1472  0.1260
 3108W        W12588   6.144  13.591   2.205  0.4383 -0.1361  0.4211
 3109W        W12589   5.534   4.125   8.732 -0.1471 -0.2941  0.1831
 3110W        W12590   6.277  10.543   8.488  0.0492 -0.1063 -0.1135
 3111W        W12591   7.711   7.467   7.872  0.3800 -0.0106  0.0166
 3112W        W12592   6.221   3.755   7.982 -0.1951 -0.0837 -0.1671
 3113W        W12593   0.551  11.010   1.179  0.2813 -0.0808 -0.0684
 3114W        W12594   0.448   5.103   8.979  0.0033 -0.1131 -0.2138
 3115W        W12595  14.348   9.262   7.168 -0.0431 -0.0498  0.1203
 3116W        W12596   7.304  10.216   1.475 -0.1734  0.0884  0.1281
 3117W        W12597   2.825   9.424   1.855 -0.3520  0.2687  0.2077
 3118W        W12598   1.699   7.967   1.842  0.1198 -0.2568  0.1908
 3119W        W12599  13.478   8.679   6.629  0.0400  0.1021  0.0218
 3120W        W12600   7.780   7.709   6.599  0.4537  0.0722  0.0357
 3121W        W12601   5.715   8.792   1.238 -0.0124 -0.0416  0.0727
 3122W        W12602   6.239   5.871   0.257 -0.3498 -0.1974  0.0438
 3123W        W12603   9.160   7.098   0.185 -0.1673  0.0747 -0.0843
 3124W        W12604  15.384  12.026   8.456  0.2041 -0.0368  0.2870
 3125W        W12605   7.701   7.496   1.723  0.0803 -0.0450 -0.1661
 3126W        W12606   8.871   9.842   8.844  0.0460  0.0592 -0.0549
 3127W        W12607  10.461  12.762   8.210  0.0578  0.0211 -0.1810
 3128W        W12608   6.726  10.421   2.393 -0.0085 -0.0971 -0.0992
 3129W        W12609   5.593  14.028   1.054 -0.0036  0.0910 -0.0437
 3130W        W12610   1.437   9.532   1.390 -0.2004 -0.3937 -0.1394
 3131W        W12611   5.975  11.534   8.417  0.2481 -0.1085  0.0530
 3132W        W12612  14.904   8.892   6.986  0.2560  0.0969  0.2228
 3133W        W12613   5.984   8.423   7.719 -0.0620 -0.2244 -0.0562
 3134W        W12614   3.995  12.351   3.158  0.0617 -0.0346 -0.1594
 3135W        W12615   5.169   9.418   7.668 -0.1496  0.1470  0.0300
 3136W        W12616   4.459   0.688   1.503  0.0534 -0.3204  0.0554
 3137W        W12617   8.163   7.724   1.641 -0.3889 -0.1895  0.0662
 3138W        W12618   4.714   7.745   0.203  0.3518  0.3629  0.2130
 3139W        W12619   0.401  11.455   1.307  0.0432 -0.0639  0.0258
 3140W        W12620   4.329   6.258   6.626 -0.1132  0.1445 -0.0148
 3141W        W12621   7.945  10.587   0.349 -0.0891  0.0295 -0.2463
 3142W        W12622   6.043   6.953   2.268 -0.0091 -0.1953 -0.0486
 3143W        W12623   6.557   3.280   1.723  0.0521 -0.1948 -0.3007
 3144W        W12624   6.042  10.605   0.014 -0.1112 -0.0427  0.4414
 3145W        W12625   1.877   9.255   1.056  0.2880 -0.0668 -0.4018
 3146W        W12626   3.944   0.200   7.181  0.1672  0.2114 -0.4837
 3147W        W12627   5.590   5.809   1.375 -0.3484  0.2317 -0.1391
 3148W        W12628   5.601   5.952   8.332 -0.1586  0.0096 -0.0664
 3149W        W12629  11.466   5.369   7.472 -0.1642 -0.1043 -0.0101
 3150W        W12630   4.346   6.548   8.141 -0.0974 -0.2142  0.0961
 3151W        W12631   1.263   9.020   8.067 -0.4050 -0.0228  0.0977
 3152W        W12632   5.462   9.418   0.444  0.0534 -0.4126 -0.3115
 3153W        W12633   6.070   5.627   1.980  0.2039 -0.2656 -0.1074
 3154W        W12634   6.619   7.507   8.841 -0.1184 -0.0605 -0.1169
 3155W        W12635   8.919   9.711   7.316  0.1806 -0.1499  0.1115
 3156W        W12636   5.706   3.991   0.036  0.1009  0.1087 -0.1478
 3157W        W12637   4.853   0.437   8.698  0.1197 -0.2341  0.2124
 3158W        W12638   6.733  11.842   8.587  0.1374  0.3977  0.2835
 3159W        W12639   3.750  14.539   8.415 -0.0921  0.1010  0.0888
 3160W        W12640   2.277  10.069   8.154  0.0996 -0.0341 -0.1111
 3161W        W12641   0.831   5.178   0.224 -0.4315  0.0391 -0.1859
 3162W        W12642   7.150  10.238   8.345  0.0634  0.1574 -0.1077
 3163W        W12643   6.010   5.165   7.366 -0.1452 -0.0923  0.2527
 3164W        W12644   0.382   4.658   8.014  0.2625  0.2240 -0.2348
 3165W        W12645   2.262  10.479   0.553  0.0073  0.0425 -0.2405
 3166W        W12646   7.002   6.057   9.030 -0.0911 -0.0473  0.0943
 3167W        W12647   7.815   6.875   0.549 -0.3066 -0.0620 -0.0976
 3168W        W12648   1.957  14.744   6.706  0.2061 -0.4949 -0.0841
 3169W        W12649   9.243   6.821   2.511 -0.1530  0.1356 -0.1312
 3170W        W12650  14.999  12.099   7.116 -0.3364 -0.1383  0.2046
 3171W        W12651   6.880   4.750   0.219  0.0201 -0.1790 -0.0244
 3172W        W12652   2.702  11.155   1.602 -0.0906  0.4553  0.0788
 3173W        W12653   6.753   6.801   7.856  0.3069 -0.1699 -0.0195
 3174W        W12654   6.500   8.150   7.053 -0.0191  0.1024  0.0490
 3175W        W12655   0.554   5.112   6.774 -0.0190  0.1399  0.0586
 3176W        W12656   0.211   8.721   6.945 -0.0293  0.0449 -0.0524
 3177W        W12657   8.487   6.358   1.221  0.0149  0.1922  0.0895
 3178W        W12658   7.484  10.359   6.903  0.0971 -0.1120  0.1640
 3179W        W12659   4.498   5.371   6.833 -0.1845 -0.1297  0.2310
 3180W        W12660  11.224   1.969   7.832 -0.2800 -0.0944 -0.0079
 3181W        W12661   6.410   8.975   0.183  0.0872  0.0826 -0.3837
 3182W        W12662   6.580   8.884   7.803  0.0668 -0.4042  0.0662
 3183W        W12663  10.180  13.636   0.257  0.0282  0.0485 -0.1607
 3184W        W12664   3.395   9.017   7.187  0.3357 -0.3621  0.0080
 3185W        W12665  10.436   2.364   6.906 -0.1357 -0.0903 -0.3488
 3186W        W12666   5.790  11.957   1.234 -0.1842  0.0482  0.5913
 3187W        W12667   4.495   9.280   7.936  0.0746 -0.1862  0.2920
 3188W        W12668   4.628   5.750   1.520 -0.2698 -0.0107  0.3250
 3189W        W12669   5.098  12.769   8.861  0.1468 -0.2118 -0.1204
 3190W        W12670  11.446   7.794   8.053  0.1945 -0.0358  0.3570
 3191W        W12671   6.070   7.692   0.532 -0.2793  0.0541  0.2650
 3192W        W12672   8.497   4.839   7.227  0.2710 -0.1155 -0.1967
 3193W        W12673   6.508   4.214   2.795 -0.2898 -0.3372  0.0800
 3194W        W12674   4.465   6.466   9.025  0.0228  0.0715 -0.2070
 3195W        W12675   4.878   9.157   6.416  0.0282 -0.1894  0.0745
 3196W        W12676   7.099   3.114   7.916  0.1614  0.1109  0.1572
 3197W        W12677   5.747  11.999   0.225 -0.2623 -0.0294  0.3606
 3198W        W12678   3.019   8.803   0.253 -0.0199 -0.0082  0.2659
 3199W        W12679   7.154   5.810   0.392  0.3580 -0.0025 -0.1104
 3200W        W12680   3.428   8.688   0.551  0.0130 -0.1313 -0.2055
 3201W        W12681   7.666  15.167   8.519  0.0070  0.5272 -0.4833
 3202W        W12682   1.831   7.508   8.309 -0.0088  0.2986 -0.3546
 3203W        W12683   0.862   7.366   8.888  0.1051  0.0564 -0.0813
 3204W        W12684   1.541  11.000   8.842  0.1184 -0.0045  0.0139
 3205W        W12685   8.070  12.312   0.878  0.2806  0.0773  0.1172
 3206W        W12686   6.900   5.107   7.798 -0.1764 -0.3084  0.0509
 3207W        W12687   4.792  10.734   8.397 -0.2343  0.0556 -0.1758
 3208W        W12688   6.976  12.512   7.092  0.1779  0.1746 -0.1230
 3209W        W12689   6.257   7.051   0.061  0.2275  0.0463  0.1744
 3210W        W12690   7.454   6.999   7.261  0.0333 -0.0687  0.1759
 3211W        W12691   9.286   0.443   8.311 -0.0309  0.0088  0.1994
 3212W        W12692   7.897   8.370   2.212  0.0927  0.1054 -0.3367
 3213W        W12693   5.620  15.338   9.078  0.0747  0.1744  0.0123
 3214W        W12694   4.456   8.828   8.132  0.0684 -0.1356 -0.0299
 3215W        W12695   2.977   6.978   1.482  0.1353  0.0330  0.1048
 3216W        W12696   1.693   8.778   1.621 -0.1441 -0.2107  0.0468
 3217W        W12697   3.900   2.959   1.700 -0.2014 -0.0375 -0.2220
 3218W        W12698   3.868  12.544   6.753  0.3457 -0.1446  0.4511
 3219W        W12699   9.476   5.982   8.258 -0.0658 -0.1264  0.1947
 3220W        W12700   7.458   6.634   6.313 -0.2341 -0.0911  0.0888
 3221W        W12701   5.602  12.384   6.746  0.1433  0.0969  0.1177
 3222W        W12702   2.552   9.597   7.294  0.1859 -0.1375  0.1435
 3223W        W12703   5.049  12.596   8.062  0.5580  0.0322 -0.0504
 3224W        W12704   7.391   1.358   7.524 -0.1753 -0.0161  0.1381
 3225W        W12705   0.590  14.492   0.362  0.2736  0.0093  0.6241
 3226W        W12706   4.397   8.931   7.130  0.2323  0.1562  0.0380
 3227W        W12707   5.934   7.814   7.677 -0.1508  0.0509 -0.3413
 3228W        W12708   7.783   0.843   0.183 -0.0835  0.1008  0.1954
 3229W        W12709   8.394  11.201   7.000 -0.0480 -0.5292 -0.0798
 3230W        W12710   3.782   6.545   8.409 -0.0328  0.4940  0.0148
 3231W        W12711   5.202   8.465   0.278  0.2132  0.0503 -0.0725
 3232W        W12712  14.607  11.869   8.987 -0.4360 -0.2213  0.0669
 3233W        W12713  10.621   2.114   0.216 -0.2965  0.1055 -0.3959
 3234W        W12714   6.950   6.811   8.524 -0.0187  0.1388 -0.1033
 3235W        W12715   1.760   2.502   7.093 -0.1371  0.1560 -0.0416
 3236W        W12716   5.835   9.726   0.611 -0.0219 -0.1999  0.1286
 3237W        W12717   3.582   4.139   7.387 -0.2223  0.0983 -0.1210
 3238W        W12718   1.489  10.431   7.218 -0.0548  0.2701 -0.0443
 3239W        W12719  10.466   8.551   1.238  0.0417  0.0156 -0.1289
 3240W        W12720   5.219   7.157   8.542 -0.0210  0.0674  0.2236
 3241W        W12721   7.035   7.381   2.891  0.0392 -0.1103 -0.1429
 3242W        W12722  11.622   8.208   1.100  0.1599  0.1521 -0.0567
 3243W        W12723   4.050   5.799   8.373 -0.2559  0.0420  0.0953
 3244W        W12724  13.000   4.018   0.825  0.1408 -0.0728 -0.2897
 3245W        W12725   3.576   2.826   0.832 -0.2265 -0.1438  0.1314
 3246W        W12726   7.266   7.891   7.479  0.0302  0.0363  0.0281
 3247W        W12727  14.543   1.967   7.544  0.3404 -0.1564  0.0180
 3248W        W12728   3.977   7.911   7.018  0.0647 -0.3022  0.0617
 3249W        W12729   4.451   8.668   1.563 -0.1692 -0.0848  0.0563
 3250W        W12730   2.405   6.814   8.428  0.0577  0.2239  0.0073
 3251W        W12731   2.169   8.720   1.753 -0.1651 -0.0787 -0.1749
 3252W        W12732   7.828   4.669   0.447  0.0498  0.0654  0.0671
 3253W        W12733   3.382   5.675   0.365  0.1344 -0.2845  0.1706
 3254W        W12734   9.214  13.756   6.654  0.0936  0.1288 -0.0192
 3255W        W12735   4.521   3.739   6.660  0.2055 -0.1295  0.2863
 3256W        W12736   4.116  12.766   7.499  0.2312  0.2114 -0.1644
 3257W        W12737   7.265   1.956   8.829  0.2473  0.1314  0.0091
 3258W        W12738  11.589   5.415   0.308 -0.1608  0.0072 -0.0122
 3259W        W12739   5.130  11.458   1.450 -0.3565 -0.1555 -0.2692
 3260W        W12740  10.441   8.204   7.164 -0.0262 -0.1213 -0.1534
 3261W        W12741  13.680   5.061   0.021 -0.1425 -0.0534  0.5064
 3262W        W12742   4.461   3.117   8.280  0.2289 -0.1085 -0.3642
 3263W        W12743  10.534  11.378   3.046 -0.0190 -0.0450  0.0493
 3264W        W12744   3.522  10.436   7.418 -0.3623 -0.2045  0.2081
 3265W        W12745  15.158  11.451   0.553  0.3091  0.3256 -0.0334
 3266W        W12746   6.786   5.986   1.891  0.2167 -0.4462 -0.2325
 3267W        W12747   3.115  14.638   8.925  0.1378  0.1551  0.1977
 3268W        W12748   8.108   9.944   6.853  0.1753  0.0387  0.1503
 3269W        W12749   3.920   8.375   0.805 -0.1403  0.3518  0.0408
 3270W        W12750   0.851  12.980   1.343 -0.1990  0.0421  0.3048
 3271W        W12751   8.416   3.965   6.768  0.1930 -0.2021  0.1733
 3272W        W12752   5.106  14.095   6.844  0.1837  0.1687  0.1048
 3273W        W12753   1.162   7.884   1.966 -0.2996 -0.0320 -0.0450
 3274W        W12754  10.288   8.039   1.431  0.0045 -0.0983 -0.2375
 3275W        W12755  12.390   8.186   1.331 -0.0799 -0.0543 -0.3557
 3276W        W12756   9.320   6.298   8.585  0.3106 -0.0780  0.0003
 3277W        W12757  12.317   7.045   0.631  0.1052  0.4365 -0.2085
 3278W        W12758   8.547   9.277   2.678  0.1129 -0.2607 -0.0084
 3279W        W12759  10.555   5.051   7.994 -0.1183  0.2196 -0.0317
 3280W        W12760   1.749   7.183   8.753  0.0288 -0.2279  0.1954
 3281W        W12761   7.376  10.805   6.748  0.0005 -0.0296  0.2671
 3282W        W12762   8.779   5.463   6.461 -0.0509  0.0813 -0.3197
 3283W        W12763   2.118  11.826   2.353  0.3025  0.0326  0.0765
 3284W        W12764   8.940  11.649   8.279  0.1472  0.1902 -0.3070
 3285W        W12765   9.058  14.740   0.452 -0.2086  0.2458  0.1032
 3286W        W12766   8.471  10.452   6.795 -0.0511 -0.2050 -0.1476
 3287W        W12767  14.127   8.823   1.643  0.0067  0.0858 -0.4052
 3288W        W12768  11.111   7.619   0.252 -0.1219 -0.3018 -0.0164
 3289W        W12769  10.505   9.503   8.562  0.0084  0.4539 -0.0597
 3290W        W12770   4.520  10.311   7.391 -0.1082 -0.2195 -0.0650
 3291W        W12771  10.964  10.834   1.534 -0.0495 -0.2247 -0.1067
 3292W        W12772   6.543  12.254   8.308 -0.1757 -0.0269  0.1283
 3293W        W12773   9.061  10.959   8.137 -0.3382  0.0403 -0.1600
 3294W        W12774  14.169   7.796   7.775 -0.2097 -0.0444  0.1288
 3295W        W12775   6.687   5.467   0.617  0.4170  0.2093  0.1546
 3296W        W12776   2.274  13.025   8.956  0.0899 -0.2774 -0.0705
 3297W        W12777  11.817   5.686   0.753  0.1483  0.0155 -0.2593
 3298W        W12778   8.312   6.906   0.482  0.2715  0.1803 -0.2752
 3299W        W12779   8.556  14.566   8.392  0.2364  0.3611 -0.2550
 3300W        W12780   7.568   9.254   8.461 -0.2603  0.0702 -0.0672
 3301W        W12781  11.041  11.699   1.546 -0.0662 -0.0478  0.0223
 3302W        W12782   9.284   9.166   0.575 -0.0701 -0.1970  0.0348
 3303W        W12783   9.380  10.965   1.473  0.3543  0.0966 -0.2107
 3304W        W12784   5.275   9.614   0.888  0.0362 -0.1929  0.2575
 3305W        W12785  10.429  12.180   1.966 -0.1280 -0.4703  0.0925
 3306W        W12786   8.617  11.987   1.860 -0.2623  0.1953 -0.0303
 3307W        W12787  10.607   0.699   6.245  0.2837 -0.1324  0.4061
 3308W        W12788  10.488   5.803   1.428  0.1365  0.1735  0.0256
 3309W        W12789  10.164  10.098   1.910 -0.1720  0.3837 -0.0814
 3310W        W12790  14.576   1.172   8.374 -0.2118 -0.0661  0.3583
 3311W        W12791   8.037   8.683   0.596  0.1195 -0.2460  0.0384
 3312W        W12792   7.214   6.032   7.130 -0.2538 -0.0319  0.1171
 3313W        W12793  10.991   6.868   7.138  0.0578 -0.0709 -0.0363
 3314W        W12794  10.226   4.889   0.536  0.0393  0.1273  0.0493
 3315W        W12795   8.744   5.978   0.110  0.1392  0.2127 -0.0801
 3316W        W12796  11.070   5.259   2.256  0.0425 -0.1082 -0.2206
 3317W        W12797   5.777   3.888   7.523  0.1603  0.1300 -0.1402
 3318W        W12798   9.109   8.417   7.580  0.2965 -0.1922 -0.2135
 3319W        W12799  13.654   3.983   9.097  0.0812  0.0090 -0.1239
 3320W        W12800   8.408   5.672   0.618  0.2343  0.1480 -0.1360
 3321W        W12801  12.219  12.946   1.132  0.2472 -0.0520 -0.2344
 3322W        W12802  11.531   8.839   6.824  0.0421  0.0151  0.1655
 3323W        W12803  14.503  11.292   8.102  0.0712  0.0961 -0.0634
 3324W        W12804   7.998   5.233   1.792 -0.1805  0.1267 -0.0014
 3325W        W12805   7.671  13.615   1.570 -0.1628 -0.0389 -0.0348
 3326W        W12806   9.696   8.381   7.716 -0.0137 -0.0287 -0.0955
 3327W        W12807   8.145   5.222   2.371  0.1385 -0.0469  0.0492
 3328W        W12808   6.798   8.811   6.333  0.3191  0.3116 -0.3670
 3329W        W12809   6.824  10.839   1.972 -0.3568  0.3030  0.0905
 3330W        W12810   1.989  12.540   2.044  0.0814  0.3402 -0.1892
 3331W        W12811  11.543   9.097   1.021 -0.1364  0.2211  0.0050
 3332W        W12812  15.007  11.333   7.925  0.5190  0.0478 -0.1258
 3333W        W12813  10.008   8.251   0.215 -0.2431  0.0029 -0.0042
 3334W        W12814   8.948  10.952   0.141 -0.0998 -0.0897  0.1720
 3335W        W12815   6.884  13.693   8.080 -0.2287  0.1723  0.1064
 3336W        W12816  10.890  11.610   8.076  0.1232 -0.2342 -0.0097
 3337W        W12817  14.252  10.476   7.111  0.0476 -0.1322 -0.2665
 3338W        W12818   7.980   7.418   1.278 -0.0486  0.0875 -0.0889
 3339W        W12819   5.377   6.961   7.980 -0.1592 -0.0852 -0.3940
 3340W        W12820   8.087   6.486   1.773 -0.2542  0.2520 -0.0735
 3341W        W12821   0.399   5.479   7.723  0.0502 -0.1110 -0.0135
 3342W        W12822  10.521   4.512   7.957  0.1230 -0.0373  0.1169
 3343W        W12823   2.926   8.692   8.893 -0.0103  0.2585 -0.1660
 3344W        W12824   7.994  14.299   7.802 -0.1075  0.1081  0.0991
 3345W        W12825  12.352  12.469   0.103  0.0847  0.1081  0.0843
 3346W        W12826  10.214  11.122   1.599 -0.1488  0.2280  0.1001
 3347W        W12827   4.022   7.318   8.198  0.1727  0.0713 -0.1900
 3348W        W12828   7.315  11.266   8.981  0.0177  0.2053 -0.0751
 3349W        W12829   0.100   4.379   8.460  0.3257 -0.0770 -0.0102
 3350W        W12830  12.040   9.282   7.412  0.0475  0.0840 -0.4125
 3351W        W12831   8.943  11.106   7.239  0.1356  0.2267 -0.2841
 3352W        W12832  11.378   8.662   8.236  0.2231 -0.0399  0.1891
 3353W        W12833   8.023   6.902   0.062  0.0020 -0.2853  0.0464
 3354W        W12834  14.407   6.769   8.032  0.0562 -0.0578 -0.0110
 3355W        W12835   5.146   6.570   1.752 -0.3746 -0.1334  0.0213
 3356W        W12836   9.799  10.818   1.777  0.1595 -0.1086  0.1764
 3357W        W12837   0.519   2.552   7.470 -0.1565  0.4361  0.3223
 3358W        W12838   4.762   9.748   0.759 -0.1182  0.0409  0.0898
 3359W        W12839  10.477   9.247   8.090  0.1786  0.0496 -0.0125
 3360W        W12840   7.907   9.620   8.500 -0.1549 -0.0395 -0.1066
 3361W        W12841   3.826   1.097   1.684 -0.1378 -0.1122  0.2517
 3362W        W12842   2.115   8.822   7.706 -0.0834 -0.3699  0.0274
 3363W        W12843   9.955  13.879   7.200  0.2606  0.2780  0.0147
 3364W        W12844  10.194   8.547   7.421  0.1223 -0.1003 -0.0358
 3365W        W12845  12.070   9.089   6.957 -0.0357  0.2489  0.1604
 3366W        W12846   7.976   8.763   0.124  0.0579  0.2751  0.1200
 3367W        W12847  10.422   3.841   8.718  0.2362 -0.0360 -0.0082
 3368W        W12848   5.471  10.314   7.957  0.2627 -0.0630 -0.1351
 3369W        W12849  13.101   7.766   2.645 -0.0854 -0.0225 -0.1493
 3370W        W12850  10.261   7.380   8.413 -0.2616  0.1883 -0.1409
 3371W        W12851   7.660   9.727   6.910  0.0727 -0.0058 -0.2362
 3372W        W12852  10.410   4.047   6.820 -0.1024 -0.0851  0.1088
 3373W        W12853   1.048   9.648   7.258 -0.0157 -0.0863  0.1408
 3374W        W12854  10.859   3.763   8.432  0.0790  0.1809  0.0422
 3375W        W12855   8.684   1.623   6.881 -0.2648  0.2558  0.2245
 3376W        W12856   9.101   3.944   1.528  0.1660  0.0322 -0.0044
 3377W        W12857  10.467   9.427   0.759  0.1760  0.0957 -0.2710
 3378W        W12858   7.812  11.008   2.926 -0.0027  0.0224 -0.3199
 3379W        W12859  11.839  13.277   1.109  0.0474  0.0106  0.2084
 3380W        W12860   8.616   5.601   7.830  0.0904  0.1271 -0.2343
 3381W        W12861   1.925   5.669   6.536  0.0004  0.0212 -0.0557
 3382W        W12862   7.485   6.324   7.418  0.0760 -0.0788  0.0891
 3383W        W12863  12.933   8.721   8.472 -0.1236 -0.0352  0.1707
 3384W        W12864   5.340  13.866   1.476  0.0962 -0.1090  0.1735
 3385W        W12865  12.884   8.575   1.274  0.0607 -0.2008 -0.2890
 3386W        W12866   5.793  12.293   1.601  0.2487  0.1800  0.0874
 3387W        W12867   7.768  11.821   7.898  0.2170 -0.1831  0.2328
 3388W        W12868  14.578   3.714   8.868  0.2072  0.1814  0.0740
 3389W        W12869   7.539   4.773   7.153  0.0906  0.3152 -0.0987
 3390W        W12870   0.410  13.847   1.593 -0.1015 -0.2677  0.1921
 3391W        W12871   7.674   6.189   1.679 -0.2827 -0.0070 -0.0937
 3392W        W12872   5.577  12.792   8.794  0.0707  0.1553  0.1230
 3393W        W12873   5.089   6.586   6.954  0.1623  0.3233 -0.2927
 3394W        W12874  10.384   7.718   0.909 -0.0355  0.1706 -0.0638
 3395W        W12875  11.451   8.325   0.040  0.1072  0.1028  0.1612
 3396W        W12876  10.349   9.122   7.313 -0.3480  0.3457  0.2368
 3397W        W12877  10.991   7.549   8.827 -0.0984  0.1755 -0.0078
 3398W        W12878   9.911   8.214   7.079  0.0732  0.1811  0.2545
 3399W        W12879  12.500   8.396   8.027 -0.3815 -0.2902 -0.0654
 3400W        W12880   8.701   3.956   8.658 -0.0119  0.0421  0.1245
 3401W        W12881   2.652   1.463   7.153 -0.1264  0.1384  0.1184
 3402W        W12882   6.536   6.916   8.748 -0.0525 -0.2104 -0.0313
 3403W        W12883  13.400   8.480   1.046  0.0562  0.0220 -0.0197
 3404W        W12884   1.922   1.226   1.251  0.1613 -0.0972  0.1379
 3405W        W12885   9.424   5.646   1.436  0.0336  0.0699 -0.1953
 3406W        W12886  10.821   1.017   7.076  0.0106 -0.0745  0.3604
 3407W        W12887   2.654   9.202   6.734  0.1157 -0.2061  0.0198
 3408W        W12888   5.666   7.990   1.547  0.0703  0.0832 -0.0762
 3409W        W12889   8.360   5.882   7.148  0.0658 -0.1665  0.1549
 3410W        W12890   7.120  12.777   8.106  0.1003 -0.1294 -0.1590
 3411W        W12891   4.180   7.376   0.923  0.5147 -0.1115  0.3084
 3412W        W12892  13.582   6.690   1.288  0.1613 -0.0785 -0.0059
 3413W        W12893   7.323   5.090   8.131  0.1260  0.0464  0.2943
 3414W        W12894  11.968   7.842   1.355  0.3961 -0.1366 -0.2879
 3415W        W12895   9.300   2.255   8.598  0.2145 -0.1760  0.0580
 3416W        W12896   5.832   7.715   8.848  0.0014  0.2807  0.0096
 3417W        W12897   5.978   6.772   6.824 -0.0279  0.3282  0.0113
 3418W        W12898  10.838   6.774   0.750  0.1811 -0.1707  0.2371
 3419W        W12899   6.082   4.832   7.839  0.1170 -0.1947  0.1870
 3420W        W12900   8.895   7.038   1.790 -0.1347 -0.0128  0.2904
 3421W        W12901   9.527  14.688   7.557 -0.0591 -0.1047 -0.1689
 3422W        W12902   9.448   4.639   1.027 -0.1589  0.0044  0.1850
 3423W        W12903   4.826  13.923   7.402 -0.2873  0.0392  0.0341
 3424W        W12904  10.408   9.769   2.211 -0.2142  0.2315 -0.1852
 3425W        W12905  13.199   7.977   6.941  0.1407  0.0454 -0.3163
 3426W        W12906   4.425   7.056   0.450 -0.0091 -0.0118  0.1523
 3427W        W12907   7.825   7.996   7.632 -0.1616  0.0411  0.1211
 3428W        W12908   3.909   7.405   7.098 -0.0629  0.0397  0.0761
 3429W        W12909   8.069   5.241   8.646  0.1245 -0.1169 -0.0447
 3430W        W12910   8.666   6.241   6.966 -0.1813 -0.0255 -0.1902
 3431W        W12911   8.583   5.240   8.568 -0.0358 -0.1972 -0.0890
 3432W        W12912  14.655   7.298   0.769  0.1531 -0.0231  0.1307
 3433W        W12913   6.931   2.271   0.468 -0.0900  0.0089  0.0167
 3434W        W12914  15.323   6.887   1.104 -0.1939 -0.2477  0.0772
 3435W        W12915   5.308   7.080   1.736  0.0374  0.1333 -0.0090
 3436W        W12916   5.408  15.446   1.709 -0.1874  0.1467 -0.0539
 3437W        W12917   1.784   9.907   6.872 -0.1338  0.2452 -0.1914
 3438W        W12918   3.475   7.964   0.649 -0.2971  0.0358  0.0496
 3439W        W12919   8.427   9.040   0.672 -0.0905 -0.1234  0.1383
 3440W        W12920  10.525   7.764   8.623  0.2098 -0.2044  0.0189
 3441W        W12921   9.792  13.970   0.551  0.2476 -0.0133  0.1074
 3442W        W12922   2.422   6.804   6.998  0.2682 -0.2215  0.2616
 3443W        W12923   8.692   3.743   7.680  0.0752 -0.0063 -0.1396
 3444W        W12924   5.054  15.099   0.027 -0.0908 -0.2215 -0.0651
 3445W        W12925  10.677   7.800   0.058 -0.4414 -0.2617  0.0838
 3446W        W12926   6.341  10.289   0.371  0.1801  0.3768 -0.2796
 3447W        W12927   4.147   1.587   8.753  0.2477 -0.0390  0.5195
 3448W        W12928   9.886   7.549   8.161 -0.4793 -0.1052  0.1091
 3449W        W12929   3.841   5.132   7.052  0.1214 -0.1747  0.2230
 3450W        W12930   2.178   1.592   0.720  0.1777  0.3259 -0.0480
 3451W        W12931  12.569   8.859   7.782  0.1812 -0.0436  0.0774
 3452W        W12932   5.874   6.703   1.081  0.0468  0.1281  0.1739
 3453W        W12933  12.953   9.181   8.751 -0.4750 -0.3992  0.0546
 3454W        W12934   6.603   4.311   8.894  0.0826 -0.0776 -0.1519
 3455W        W12935   9.765   5.623   6.392 -0.1839  0.0344 -0.4349
 3456W        W12936  11.896   2.402   7.309 -0.3789  0.2443 -0.0973
 3457W        W12937   6.857   4.139   7.447 -0.0492  0.3277  0.0433
 3458W        W12938   7.828  10.052   7.226 -0.2131  0.0353  0.0652
 3459W        W12939  15.320   7.753   7.875  0.0945 -0.1976  0.0336
 3460W        W12940  12.679   9.238   8.334  0.2478  0.0101 -0.1014
 3461W        W12941   9.018   5.614   8.227 -0.0973  0.2472 -0.2346
 3462W        W12942   7.609   6.243   2.837  0.0564  0.0535 -0.1591
 3463W        W12943   3.671   9.922   7.233  0.0261 -0.4045 -0.0635
 3464W        W12944   6.471  10.042   7.743  0.1201 -0.2564  0.3408
 3465W        W12945   7.364   7.050   0.696  0.0030  0.0616  0.0487
 3466W        W12946  12.640   7.946   0.923  0.0353 -0.1997 -0.1501
 3467W        W12947  10.429   6.025   7.211 -0.1668  0.1376  0.1653
 3468W        W12948  13.600   8.774   7.112 -0.2987  0.0398 -0.3128
 3469W        W12949   7.374  15.265   6.491 -0.4593  0.2074 -0.0356
 3470W        W12950  10.456   7.215   1.651  0.2221 -0.1575 -0.3986
 3471W        W12951   7.751  12.911   0.178  0.3109  0.0886 -0.2549
 3472W        W12952   9.504   1.850   2.576  0.1197 -0.0491  0.1392
 3473W        W12953   8.075   5.177   7.338 -0.0070  0.1169  0.2312
 3474W        W12954  14.874  11.107   1.732 -0.1203 -0.1264  0.1323
 3475W        W12955   8.353   7.781   0.156  0.1735  0.1168  0.1246
 3476W        W12956  13.855   8.208   0.174  0.0550  0.1314  0.0344
 3477W        W12957  12.286  10.472   7.727  0.0258 -0.0122  0.0184
 3478W        W12958   8.416   6.133   8.767 -0.1825  0.3271 -0.0421
 3479W        W12959   9.143   9.049   8.022 -0.1397  0.1749 -0.3022
 3480W        W12960   1.393   9.497   8.249  0.3384 -0.1735  0.3952
 3481W        W12961   7.005  10.040   7.837  0.0386  0.0751 -0.3711
 3482W        W12962  11.352   4.779   7.295 -0.1723  0.0006 -0.1414
 3483W        W12963  11.814   7.740   7.653 -0.1521  0.2283 -0.1512
 3484W        W12964  14.278   7.811   6.622 -0.0498 -0.0299 -0.3657
 3485W        W12965   9.268   0.980   1.995 -0.4091  0.1340 -0.0306
 3486W        W12966  10.718   9.352   7.067 -0.3929 -0.1617  0.2132
 3487W        W12967   8.917   9.327   8.437 -0.1259 -0.2578  0.1875
 3488W        W12968  14.392  12.294   0.006  0.1459  0.1011 -0.1330
 3489W        W12969  12.262   3.549   1.462  0.2094  0.1681 -0.0235
 3490W        W12970  10.275   6.401   8.799 -0.1783 -0.0946 -0.1389
 3491W        W12971  14.507   8.308   6.964  0.0528 -0.0314  0.0047
 3492W        W12972   9.413  11.130   7.102  0.2129  0.1562 -0.0936
 3493W        W12973  15.346  15.324   8.888  0.1069 -0.3209  0.1647
 3494W        W12974   7.932  13.830   7.881  0.0367  0.0600 -0.1300
 3495W        W12975  10.848  10.262   8.832  0.3027  0.2630  0.0509
 3496W        W12976  12.665   6.675   7.624 -0.2742  0.1624  0.0240
 3497W        W12977   9.546   7.381   7.047 -0.2452  0.0560 -0.0575
 3498W        W12978  15.069   6.759   6.855  0.1798  0.2085 -0.0070
 3499W        W12979  13.804  10.499   7.931  0.2641 -0.1180  0.0577
 3500W        W12980   8.009   0.406   8.640 -0.0392 -0.0607  0.2760
 3501W        W12981   6.188   4.804   2.552 -0.4914 -0.0465  0.3650
 3502W        W12982  10.562  12.848   1.014  0.2572 -0.0493 -0.0748
 3503W        W12983  11.286   5.629   7.096 -0.1150  0.0850 -0.3288
 3504W        W12984  12.134   8.366   8.379 -0.1212  0.0732  0.0167
 3505W        W12985  11.200   8.255   8.066 -0.0633  0.2443  0.0908
 3506W        W12986   1.688  11.784   8.904 -0.0084  0.1785  0.1186
 3507W        W12987  13.027   4.664   8.610 -0.0021 -0.1833  0.2889
 3508W        W12988   9.833   9.362   8.734  0.1399 -0.0551  0.0570
 3509W        W12989  10.212  13.961   6.729  0.1513  0.2226 -0.0596
 3510W        W12990  10.320   7.244   6.561 -0.2874 -0.1546  0.1567
 3511W        W12991   9.725  11.891   8.715  0.1474 -0.1284  0.3838
 3512W        W12992   8.502  11.655   1.479  0.0606  0.0773  0.0035
 3513W        W12993  11.116   5.163   7.065  0.3952 -0.0035 -0.1232
 3514W        W12994  15.174   8.157   8.201  0.1182  0.0277 -0.1185
 3515W        W12995   2.101   5.328   0.935 -0.2217  0.1584  0.1589
 3516W        W12996   5.255   5.207   1.923 -0.0684 -0.1386 -0.3731
 3517W        W12997  10.122   7.556   1.483  0.0340 -0.1889 -0.2789
 3518W        W12998   9.965   2.067   0.006 -0.0713  0.1466 -0.0155
 3519W        W12999   6.660  10.392   0.019  0.0057  0.0359 -0.1145
 3520W        W13000   4.888   5.602   8.920 -0.4000  0.1109 -0.0454
 3521W        W13001   1.780   4.106   1.726  0.1594 -0.0097 -0.2640
 3522W        W13002  10.592  13.572   8.421  0.2913 -0.4677  0.0746
 3523W        W13003   9.924   7.119   7.768 -0.1325  0.1006 -0.1248
 3524W        W13004  14.985   4.779   9.034  0.1517  0.1311 -0.2494
 3525W        W13005  11.126   6.472   7.379  0.1800 -0.1513  0.0420
 3526W        W13006   1.333  14.872   8.444 -0.0188  0.0401  0.0808
 3527W        W13007  12.754   7.037   8.831 -0.2097 -0.2638 -0.0479
 3528W        W13008   0.759   7.388   1.406 -0.0793  0.1753 -0.1359
 3529W        W13009   8.283   3.663   8.594 -0.4058  0.1924  0.0955
 3530W        W13010  13.816   7.433   7.760  0.1912  0.1331  0.3471
 3531W        W13011   1.721   9.305   9.029 -0.0612 -0.0773 -0.2763
 3532W        W13012  12.604  10.046   1.622  0.0961  0.0775  0.1778
 3533W        W13013   9.418   3.644   2.480 -0.0311  0.0550 -0.2453
 3534W        W13014  12.161  10.821   7.401  0.0116  0.0290 -0.3587
 3535W        W13015  12.473   2.260   8.488 -0.2718 -0.0395 -0.0759
 3536W        W13016   1.471   9.688   8.765 -0.1505 -0.1130  0.1279
 3537W        W13017  14.666   6.207   6.196 -0.0478  0.0198 -0.0914
 3538W        W13018   7.713   7.184   8.284 -0.0541 -0.0326  0.1032
 3539W        W13019   6.482   9.226   8.491  0.3806 -0.0697  0.2609
 3540W        W13020   1.342   9.200   7.056  0.1759 -0.0607  0.0639
 3541W        W13021   3.418   2.544   1.999 -0.1837  0.1395 -0.0275
 3542W        W13022  12.917  13.326   1.306  0.0585  0.2048  0.0277
 3543W        W13023  12.629   8.439   8.745 -0.1515  0.1253 -0.4215
 3544W        W13024  14.775   3.305   8.186 -0.0542 -0.0268  0.0182
 3545W        W13025   6.514  14.118   1.003 -0.0637  0.2545 -0.0623
 3546W        W13026  14.552  10.913   1.213 -0.1458  0.0123 -0.0894
 3547W        W13027   7.699   6.891   1.088 -0.1675 -0.2471 -0.0504
 3548W        W13028  11.976   3.237   8.270  0.1390 -0.4180  0.2539
 3549W        W13029  10.512   5.460   8.948 -0.0949 -0.0174 -0.0073
 3550W        W13030   4.269   1.191   7.710 -0.2186  0.0788  0.1532
 3551W        W13031  12.178   6.079   0.589 -0.0384 -0.0966  0.0022
 3552W        W13032   8.325   5.627   1.712  0.2188 -0.1632 -0.2999
 3553W        W13033   7.221   9.490   6.927 -0.2254  0.2174  0.1105
 3554W        W13034  13.648  10.463   1.294 -0.1622  0.0684 -0.1181
 3555W        W13035  14.049   0.579   1.900 -0.1203  0.1764  0.0013
 3556W        W13036   7.116   8.036   8.316  0.1282 -0.1559 -0.1317
 3557W        W13037  12.534   8.000   7.801 -0.1354 -0.0247  0.2271
 3558W        W13038   7.721   1.358   2.861  0.1137  0.3105  0.2027
 3559W        W13039   9.123   6.893   7.935  0.0662  0.1864 -0.1262
 3560W        W13040   9.580   7.206   2.337 -0.1426 -0.1024 -0.1112
 3561W        W13041  10.290   8.235   0.914 -0.1366  0.1100 -0.2431
 3562W        W13042  10.997   9.823   7.793 -0.3980 -0.2739  0.3010
 3563W        W13043  14.129   6.000   0.054  0.1362  0.3454  0.0573
 3564W        W13044  15.270   5.066   1.272  0.0296  0.0637  0.2801
 3565W        W13045  14.403   9.268   8.819  0.0227 -0.1037 -0.3249
 3566W        W13046  11.564   6.609   1.081 -0.3908 -0.3924 -0.2074
 3567W        W13047   2.149   4.681   6.889 -0.0727  0.2755  0.1400
 3568W        W13048  11.717  13.829   7.815  0.0762  0.1815 -0.2358
 3569W        W13049   0.225   5.117   7.133  0.0563  0.1120  0.3383
 3570W        W13050   9.005   2.934   0.724 -0.1391 -0.1745  0.0697
 3571W        W13051   5.150   5.127   8.848 -0.0271  0.1166  0.0998
 3572W        W13052  11.533   5.259   0.865  0.0266 -0.0451 -0.3005
 3573W        W13053  13.054   5.716   8.567  0.1240  0.0316  0.0116
 3574W        W13054  11.697   7.850   6.877  0.0355 -0.1978  0.0883
 3575W        W13055   9.678   4.245   0.651  0.1807  0.0994 -0.0487
 3576W        W13056  15.158  11.246   2.162 -0.1680 -0.3047 -0.0458
 3577W        W13057   9.625   3.551   1.075 -0.0182 -0.1512  0.2885
 3578W        W13058   1.820   2.466   7.957  0.3971 -0.2267 -0.1249
 3579W        W13059  10.863   4.724   7.212 -0.1525 -0.0381 -0.1622
 3580W        W13060  13.098   7.273   0.046 -0.2505 -0.2038  0.0988
 3581W        W13061   9.163  13.291   0.976  0.1730  0.2625 -0.1072
 3582W        W13062  14.982   7.665   0.988  0.0097 -0.3938 -0.0431
 3583W        W13063  11.820   7.757   0.745  0.0939 -0.2957  0.1001
 3584W        W13064   2.297   8.367   6.769 -0.2976  0.2541 -0.0248
 3585W        W13065  13.743  12.799   1.408  0.1466  0.1494 -0.0014
 3586W        W13066   7.407   3.962   8.411  0.2633 -0.2974  0.1493
 3587W        W13067   8.480   8.813   7.302 -0.4280 -0.0389  0.1386
 3588W        W13068   7.670  14.183   8.896 -0.0485 -0.0795 -0.3895
 3589W        W13069  14.938   8.131   6.064 -0.2055  0.2842 -0.0887
 3590W        W13070  12.831   7.513   7.704 -0.0284 -0.1916  0.1347
 3591W        W13071   8.633  13.065   7.296 -0.0090  0.0759  0.3146
 3592W        W13072   0.279   8.904   0.889 -0.0232 -0.1275  0.0241
 3593W        W13073  15.241   0.826   8.310 -0.1114  0.1823  0.1146
 3594W        W13074  13.555   6.971   7.863 -0.2906 -0.1137  0.0402
 3595W        W13075  11.350   3.977   8.236 -0.0319  0.3406 -0.0139
 3596W        W13076   6.403   9.354   7.651  0.0267  0.1286 -0.3380
 3597W        W13077   2.953  10.649   6.753  0.0322  0.0664  0.0739
 3598W        W13078  11.835   3.930   0.764  0.4407 -0.4114 -0.0051
 3599W        W13079  14.480   5.983   0.379 -0.1675 -0.2626 -0.1178
 3600W        W13080  11.959   8.373   0.165  0.2185 -0.0604  0.0585
 3601W        W13081   2.384  13.367   0.692  0.2338 -0.1554 -0.0588
 3602W        W13082   0.868  13.524   7.003 -0.1622 -0.2039  0.0773
 3603W        W13083  15.210   6.043   7.899 -0.0894  0.2285  0.0878
 3604W        W13084  12.394   6.860   7.026 -0.0970  0.0508  0.1446
 3605W        W13085   1.034   8.487   0.521  0.1385 -0.0396  0.3275
 3606W        W13086  11.582   8.284   7.097 -0.2397  0.0354 -0.2828
 3607W        W13087   4.763   7.253   0.117 -0.3268 -0.2454 -0.0198
 3608W        W13088  14.936  10.047   8.501  0.1929  0.2272  0.0006
 3609W        W13089  10.894   8.565   8.445  0.5074  0.2590  0.4523
 3610W        W13090  10.969   9.394   8.308 -0.1422 -0.0883  0.1603
 3611W        W13091   8.598  10.914   8.852  0.0234  0.0636  0.0022
 3612W        W13092   5.123   9.531   1.842  0.0316 -0.3136 -0.3647
 3613W        W13093  10.754   7.081   2.124 -0.1091 -0.0613 -0.2106
 3614W        W13094  13.134  11.941   6.371 -0.0827  0.0740 -0.0653
 3615W        W13095   9.465   4.356   7.982 -0.2062  0.1911  0.0392
 3616W        W13096   9.969   8.615   8.326 -0.1018 -0.0073 -0.2126
 3617W        W13097   9.680  11.929   1.535  0.4086 -0.3099  0.0009
 3618W        W13098   8.871   4.458   7.541  0.0453 -0.0107  0.2647
 3619W        W13099   9.512   8.903   8.467  0.0296 -0.3388 -0.1941
 3620W        W13100  13.813   7.284   2.009  0.0081  0.0805 -0.1975
 3621W        W13101   9.180   5.335   8.679 -0.1466 -0.0211 -0.2056
 3622W        W13102  13.776   9.513   7.181  0.0503  0.1422  0.2421
 3623W        W13103   4.041  10.561   8.000 -0.2366  0.3540 -0.1121
 3624W        W13104   6.970  10.121   0.321 -0.1259 -0.1627 -0.0298
 3625W        W13105   5.246   8.094   1.236 -0.3103 -0.1671  0.2360
 3626W        W13106   0.135   6.463   6.753 -0.1646 -0.1583 -0.0166
 3627W        W13107  10.199   2.114   0.455  0.1649  0.0650  0.0643
 3628W        W13108   4.867   4.938   1.635  0.1333  0.0393 -0.1471
 3629W        W13109  15.213   4.329   9.014  0.0394  0.1070 -0.0314
 3630W        W13110   6.272  11.652   7.571  0.2731  0.1085 -0.1313
 3631W        W13111   8.452   6.275   2.194 -0.2292  0.3544  0.0879
 3632W        W13112  10.491   3.075   0.268 -0.1627  0.1853  0.3148
 3633W        W13113   1.101   4.259   0.031 -0.0789  0.0177  0.1001
 3634W        W13114   8.634  13.106   0.453 -0.1081 -0.1964 -0.0392
 3635W        W13115  10.539  12.996   0.488 -0.0073 -0.1696 -0.1604
 3636W        W13116   8.382  11.391   8.977 -0.1590  0.1361 -0.2784
 3637W        W13117   9.935   7.220   7.270 -0.3327  0.0178  0.0453
 3638W        W13118   8.637   8.964   6.857  0.1706 -0.3389 -0.0238
 3639W        W13119  10.847   1.038   2.366 -0.1621  0.0446 -0.2351
 3640W        W13120  11.122   9.571   7.348 -0.0714  0.4363  0.0149
 3641W        W13121  15.130   9.854   6.770 -0.2962  0.1046  0.3098
 3642W        W13122   5.441   2.148   1.031  0.1943 -0.4500 -0.0508
 3643W        W13123   9.205  12.439   2.264 -0.1689  0.0838  0.2610
 3644W        W13124   6.272  13.796   8.861 -0.0102 -0.3352 -0.0360
 3645W        W13125  10.785  10.378   7.411  0.0496  0.1017  0.1276
 3646W        W13126  13.484  11.239   7.674  0.1232  0.4475  0.2469
 3647W        W13127   9.375  11.280   8.460 -0.0138 -0.0861  0.0645
 3648W        W13128  13.626   0.873   7.400 -0.0871  0.3191 -0.0081
 3649W        W13129   3.970   3.380   8.753  0.1642 -0.1603 -0.0786
 3650W        W13130   6.044   8.757   0.468 -0.0081 -0.0645  0.0134
 3651W        W13131  12.485   4.754   7.790 -0.0869  0.3998 -0.2469
 3652W        W13132   7.518   7.583   8.662 -0.1405 -0.2815  0.1045
 3653W        W13133  11.976  11.058   1.959 -0.0562 -0.1347  0.0318
 3654W        W13134   7.492  10.132   2.161 -0.0986  0.0768  0.0940
 3655W        W13135  13.036  10.869   2.214 -0.3185 -0.0318 -0.0388
 3656W        W13136  10.023   5.882   7.604 -0.3345  0.0765 -0.1323
 3657W        W13137  10.622   6.515   7.160 -0.1516  0.1323 -0.1415
 3658W        W13138   8.872  13.598   1.282  0.0200  0.0142 -0.0886
 3659W        W13139   1.531  12.143   7.390  0.1031 -0.0021 -0.2014
 3660W        W13140  10.890  13.421   1.693 -0.1171 -0.3207 -0.2153
 3661W        W13141  10.801   6.242   7.622  0.2320  0.1595 -0.2769
 3662W        W13142  13.178   2.710   6.858 -0.2388 -0.1334 -0.0385
 3663W        W13143  10.785   2.763   7.129  0.4661  0.0109  0.2135
 3664W        W13144   9.043   8.397   0.993  0.3146  0.5307  0.0059
 3665W        W13145   4.351   8.025   9.062  0.0343 -0.1015 -0.0432
 3666W        W13146   9.958  11.052   8.909  0.0660 -0.3269  0.0850
 3667W        W13147   8.773   8.945   8.799 -0.1292  0.1693  0.2148
 3668W        W13148   7.876  11.194   7.333 -0.1909  0.0309  0.0299
 3669W        W13149  12.180   9.294   8.288  0.2039 -0.0784 -0.2256
 3670W        W13150   8.327   5.428   6.926 -0.0615 -0.0331 -0.0413
 3671W        W13151  12.974   1.881   2.004 -0.1670 -0.2131 -0.4144
 3672W        W13152  10.327  12.670   1.657 -0.1340 -0.2428  0.1047
 3673W        W13153  13.539   5.604   6.569  0.1027 -0.4069  0.3559
 3674W        W13154   3.923   7.848   0.811 -0.2007  0.0629  0.1808
 3675W        W13155   1.106   5.294   1.583  0.2149 -0.1586  0.1068
 3676W        W13156  11.358  11.708   7.985 -0.1176 -0.1008  0.0030
 3677W        W13157   0.847  14.231   1.657 -0.0202 -0.2688 -0.0514
 3678W        W13158  14.178  13.095   0.700 -0.2954 -0.1330  0.0220
 3679W        W13159   0.419   8.070   6.610  0.1990 -0.0283  0.1202
 3680W        W13160   0.843   9.557   0.926 -0.1790 -0.1458 -0.3600
 3681W        W13161  10.647   4.467   0.121  0.1075 -0.0553  0.0465
 3682W        W13162   2.753   9.857   6.856 -0.1468  0.0181  0.5250
 3683W        W13163  12.259   4.284   6.753  0.0176  0.1887 -0.1428
 3684W        W13164   7.391   9.603   0.288  0.0195  0.0662  0.2630
 3685W        W13165   1.602   8.560   2.367 -0.0340 -0.3560  0.0471
 3686W        W13166  14.211   4.733   0.755 -0.2378  0.0032  0.4309
 3687W        W13167   0.272  10.692   7.913 -0.1662  0.0570  0.1245
 3688W        W13168  10.406  13.382   0.854  0.0710  0.3407  0.0221
 3689W        W13169  15.281   4.283   0.667  0.0135  0.2668 -0.1267
 3690W        W13170   0.969   1.227   0.912  0.1553 -0.0982  0.0941
 3691W        W13171   3.847   4.974   7.535  0.0723  0.1345  0.0053
 3692W        W13172   1.221   5.580   7.369  0.2424 -0.1834  0.0859
 3693W        W13173  13.924   2.101   1.698  0.0545 -0.3110 -0.3285
 3694W        W13174  14.725   6.827   1.636 -0.0129 -0.0544  0.0622
 3695W        W13175   9.676   6.788   7.228 -0.2870 -0.2172 -0.0408
 3696W        W13176   0.725  11.269   7.834 -0.0991 -0.2903 -0.3588
 3697W        W13177  11.020   8.887   1.510 -0.0514  0.0116 -0.0723
 3698W        W13178  14.661   9.678   6.853  0.0108 -0.0003 -0.0307
 3699W        W13179  13.131   9.119   8.277  0.1029  0.2155  0.0206
 3700W        W13180  13.989   7.194   8.150  0.4528 -0.1972  0.1212
 3701W        W13181  12.144   4.280   9.081  0.0376  0.2456  0.1701
 3702W        W13182   8.109   9.423   0.788  0.0481 -0.1612 -0.0252
 3703W        W13183   1.193   9.075   6.499 -0.0991  0.3393 -0.0895
 3704W        W13184  13.256   3.861   8.501 -0.2553  0.1440  0.0098
 3705W        W13185   0.345   6.364   1.657 -0.2180  0.0406 -0.0768
 3706W        W13186  13.313  10.504   7.235  0.0626  0.1860 -0.2204
 3707W        W13187  11.415   9.739   1.055  0.2563 -0.1655  0.0889
 3708W        W13188   3.404   9.590   8.959  0.0009 -0.1899 -0.2802
 3709W        W13189   2.536   9.613   6.486  0.0824  0.1926  0.0930
 3710W        W13190   2.954  13.452   8.999 -0.0460 -0.4144  0.0224
 3711W        W13191  13.653   1.412   7.358  0.1696  0.2616  0.0197
 3712W        W13192  13.987   9.861   0.149  0.1359 -0.1120 -0.0786
 3713W        W13193   3.868  11.628   8.532 -0.0112 -0.0705 -0.2663
 3714W        W13194  10.326   5.162   1.469  0.2517 -0.0002  0.2067
 3715W        W13195  14.443  10.718   0.263 -0.1845  0.0834  0.1230
 3716W        W13196   0.330   9.846   7.726  0.2048 -0.1898 -0.0855
 3717W        W13197  11.797   5.000   7.390 -0.0167 -0.0555 -0.0412
 3718W        W13198  14.566   7.536   1.228  0.2307 -0.0097  0.2133
 3719W        W13199  11.693  11.600   0.053  0.0698 -0.2333  0.0890
 3720W        W13200   0.562   3.955   0.501  0.1432 -0.1333  0.2996
 3721W        W13201   0.886   6.089   2.372  0.2729  0.0004  0.3845
 3722W        W13202   0.906   1.801   8.490  0.0057  0.1223 -0.1555
 3723W        W13203  10.233  11.526   7.841  0.0770  0.1270  0.0739
 3724W        W13204  10.790   7.775   0.517  0.2843  0.0423 -0.3247
 3725W        W13205  13.220   7.348   1.824 -0.2065 -0.2842  0.1187
 3726W        W13206   5.826   4.497   7.490 -0.3965  0.1202 -0.0662
 3727W        W13207   3.106   9.071   6.364  0.0369 -0.0606  0.2648
 3728W        W13208  11.861   9.915   8.248 -0.0078 -0.2239  0.1734
 3729W        W13209   9.277  10.524   0.161 -0.0425  0.0531 -0.0558
 3730W        W13210   4.277  10.218   6.974 -0.1198 -0.2464 -0.0217
 3731W        W13211   9.660   5.592   1.928  0.1234  0.2165 -0.1057
 3732W        W13212  13.218  11.089   8.047  0.0946  0.2271 -0.3536
 3733W        W13213   2.925   7.663   1.275 -0.0910  0.0900 -0.0875
 3734W        W13214   3.329   7.014   8.192  0.0684  0.0884 -0.0053
 3735W        W13215  12.612   1.276   0.411 -0.0560 -0.0764 -0.2215
 3736W        W13216   0.706   5.473   8.812  0.2250  0.0146 -0.2248
 3737W        W13217  14.206   5.738   2.237  0.1094  0.0888 -0.0509
 3738W        W13218   5.613   0.586   0.802 -0.3697 -0.2894 -0.3803
 3739W        W13219   1.474  11.526   1.025 -0.1653 -0.1040 -0.1956
 3740W        W13220  11.945  10.896   6.916 -0.0993 -0.1249  0.0102
 3741W        W13221  11.705  10.992   0.314 -0.0820 -0.0914  0.2964
 3742W        W13222   0.571   9.609   7.331 -0.1796  0.1456 -0.1531
 3743W        W13223  14.975   6.141   0.506  0.1712 -0.3507 -0.0227
 3744W        W13224  10.723   5.972   1.024 -0.3240  0.1190 -0.0887
 3745W        W13225  11.328  10.011   8.860  0.3178  0.0741  0.2673
 3746W        W13226   2.236   2.314   1.504 -0.0520 -0.0595 -0.0520
 3747W        W13227  10.759   5.871   0.249 -0.0370 -0.0486  0.1188
 3748W        W13228  14.242   5.080   8.211 -0.1426  0.2082 -0.3262
 3749W        W13229  15.309  13.144   6.483 -0.2728  0.2436  0.1773
 3750W        W13230  12.731  10.718   1.181  0.2009 -0.0366  0.1493
 3751W        W13231   2.700   8.243   8.705 -0.1135 -0.0313  0.2148
 3752W        W13232   2.573   8.861   1.012  0.0888  0.1296  0.2526
 3753W        W13233   9.490  12.839   2.158  0.2978  0.0631  0.2207
 3754W        W13234   4.312   6.307   7.165 -0.2244 -0.0651  0.2669
 3755W        W13235  11.908  12.367   6.854 -0.1547  0.0345 -0.2694
 3756W        W13236   4.746   6.055   1.092 -0.0155  0.1504 -0.3870
 3757W        W13237  13.981   1.697   7.678  0.1183 -0.3196 -0.0302
 3758W        W13238   1.302  11.605   6.605 -0.1629 -0.2226 -0.2461
 3759W        W13239  13.888   5.015   1.929 -0.1242  0.0054  0.1511
 3760W        W13240  13.364   5.653   1.123  0.2563  0.0272 -0.0223
 3761W        W13241  14.460   8.319   6.473  0.0552 -0.2436  0.1360
 3762W        W13242   3.454   3.808   0.435  0.3985 -0.3295  0.0031
 3763W        W13243   0.151  12.876   7.714 -0.3167  0.3242 -0.0286
 3764W        W13244   9.896   6.202   0.818 -0.1219 -0.2976  0.1314
 3765W        W13245  14.679   7.961   8.335  0.1881 -0.1164 -0.0028
 3766W        W13246   0.912  11.647   6.957 -0.1350 -0.1825 -0.4569
 3767W        W13247   0.525   2.131   8.468  0.0341 -0.0103 -0.0044
 3768W        W13248  10.606   9.043   1.249 -0.0628 -0.1118 -0.1349
 3769W        W13249   0.551   5.110   0.719  0.1598 -0.1816  0.1579
 3770W        W13250  13.169   6.681   9.091 -0.3085 -0.0161 -0.0552
 3771W        W13251  10.799   4.557   1.597 -0.1193  0.1586  0.1981
 3772W        W13252   2.484   4.541   1.433 -0.3590 -0.2233 -0.2585
 3773W        W13253  15.212   3.457   9.056 -0.1775  0.0867 -0.0051
 3774W        W13254   5.229   7.724   0.879 -0.0183  0.1312 -0.0745
 3775W        W13255  15.185   8.383   0.464 -0.2523  0.3585 -0.0408
 3776W        W13256   4.226   3.699   7.022  0.1980  0.0959 -0.1567
 3777W        W13257   0.526  15.297   8.109 -0.1355 -0.1498  0.0878
 3778W        W13258  10.972   9.337   8.847 -0.0456  0.1097  0.1239
 3779W        W13259  14.566   7.760   7.528 -0.3166  0.1086 -0.0254
 3780W        W13260   8.776  10.282   8.082 -0.2510 -0.2149  0.0657
 3781W        W13261  11.245  10.491   8.806 -0.3965 -0.4708  0.1089
 3782W        W13262  12.529  12.074   7.563 -0.3371  0.3667 -0.0879
 3783W        W13263  13.244   6.398   7.230  0.0177 -0.0157  0.1628
 3784W        W13264  11.414   7.479   0.655  0.1594  0.2296 -0.1011
 3785W        W13265   3.052  13.267   1.672  0.0114  0.0077 -0.0105
 3786W        W13266   1.862   8.059   0.263 -0.2469 -0.1521  0.0770
 3787W        W13267   9.264  14.027   0.443  0.0930  0.2059 -0.0030
 3788W        W13268  11.230  12.390   7.495 -0.1686 -0.2773 -0.0590
 3789W        W13269  14.095  12.755   2.789  0.3188  0.1708 -0.2517
 3790W        W13270   1.615   6.166   7.827 -0.0968 -0.0099  0.3319
 3791W        W13271   0.954  14.821   1.868 -0.0020  0.0625 -0.3003
 3792W        W13272   1.608  11.614   2.370 -0.0884 -0.3123  0.1919
 3793W        W13273   0.956  10.284   7.159  0.2721  0.0963  0.1233
 3794W        W13274   3.856  12.383   7.240 -0.2591 -0.1080  0.3886
 3795W        W13275   0.813   7.202   8.359 -0.3583 -0.1659  0.0227
 3796W        W13276  12.851   1.913   1.068 -0.0342 -0.0214 -0.2312
 3797W        W13277  11.929  12.374   8.338 -0.0008  0.0016 -0.4623
 3798W        W13278   2.215  13.808   8.510  0.1658 -0.3058 -0.1777
 3799W        W13279   4.400   2.586   2.510  0.0646 -0.0561  0.4371
 3800W        W13280  12.307   6.592   8.038 -0.3586  0.1703  0.2053
 3801W        W13281  11.831  12.437   7.352  0.3084  0.1190  0.2470
 3802W        W13282   0.022  14.954   7.151 -0.1017 -0.0051  0.1721
 3803W        W13283  12.821  10.161   0.797  0.3880  0.0603 -0.2106
 3804W        W13284  12.983   8.150   7.788 -0.0718 -0.0178  0.0750
 3805W        W13285   1.423   8.968   0.325 -0.0500  0.0828 -0.1863
 3806W        W13286  15.382  13.181   0.324  0.1871  0.2002  0.3140
 3807W        W13287   5.618   9.890   6.227  0.0731 -0.0695  0.1957
 3808W        W13288   4.609   1.636   0.262  0.0308  0.0782  0.2339
 3809W        W13289  14.042   8.743   2.691  0.2341  0.0565  0.0556
 3810W        W13290   0.672  10.892   8.839 -0.0607 -0.0443  0.1758
 3811W        W13291  12.683  13.485   8.618  0.0377 -0.0032 -0.0028
 3812W        W13292   3.105   2.827   0.524 -0.1741 -0.5957  0.1179
 3813W        W13293   3.756  11.195   6.222 -0.0855 -0.3169  0.4348
 3814W        W13294  14.316  14.887   8.500 -0.0873 -0.1397  0.1147
 3815W        W13295   2.116  15.195   6.566 -0.0222  0.0234 -0.2014
 3816W        W13296   0.748  12.794   7.645  0.1044 -0.0648 -0.2139
 3817W        W13297  10.953  12.294   2.146  0.2815 -0.0064  0.2049
 3818W        W13298   6.277   1.479   0.538  0.1503 -0.3553 -0.2448
 3819W        W13299  13.904  12.246   0.717  0.0670 -0.0390  0.1645
 3820W        W13300  13.734   1.753   0.774 -0.0720 -0.1607 -0.1041
 3821W        W13301   0.474  14.605   1.728 -0.1770 -0.0477 -0.2106
 3822W        W13302   6.447  12.519   0.946 -0.2665  0.0014 -0.3207
 3823W        W13303   4.440  13.488   1.415  0.2221 -0.1107  0.0353
 3824W        W13304   5.408   9.997   0.453 -0.0479 -0.3214 -0.2473
 3825W        W13305   4.988   7.598   8.852  0.3302 -0.0823 -0.1355
 3826W        W13306   7.530  13.932   7.621 -0.1666  0.0489  0.2216
 3827W        W13307   1.062  10.801   2.140  0.1802 -0.0601  0.1426
 3828W        W13308   3.132  11.979   2.384 -0.1024 -0.2520  0.0996
 3829W        W13309   7.940  10.543   7.972  0.0930 -0.1711 -0.3298
 3830W        W13310   2.793   9.449   9.085  0.0073 -0.1328 -0.2975
 3831W        W13311   2.743  13.739   2.493  0.0015 -0.1458 -0.0386
 3832W        W13312   3.390   9.750   0.316  0.0578 -0.1327  0.3020
 3833W        W13313   6.177  14.013   0.661 -0.0206 -0.2345 -0.1870
 3834W        W13314   2.018   6.525   8.565 -0.0934  0.0905  0.1032
 3835W        W13315  13.019  13.708   8.336 -0.1638 -0.1914  0.1115
 3836W        W13316   5.232   6.262   8.548  0.0894 -0.0649  0.0733
 3837W        W13317   2.788   6.543   8.252 -0.2209 -0.2389 -0.2164
 3838W        W13318   2.445  14.713   7.614 -0.3245 -0.1799  0.3980
 3839W        W13319  12.398  11.250   1.695  0.0809  0.3737  0.0593
 3840W        W13320   3.753   0.154   0.731 -0.0051 -0.1705  0.3038
 3841W        W13321   4.864  14.615   1.010  0.3527  0.1886  0.0536
 3842W        W13322   1.526  11.470   8.174 -0.0723 -0.1320  0.1144
 3843W        W13323  12.484   9.340   7.885 -0.3979 -0.0450 -0.0249
 3844W        W13324   5.112  11.174   0.091 -0.0586 -0.3937 -0.1445
 3845W        W13325  14.044   8.170   8.367  0.1505  0.0539 -0.1007
 3846W        W13326   2.111  12.893   1.701 -0.0588 -0.1348 -0.1762
 3847W        W13327  12.071  11.892   8.695  0.5043  0.2166 -0.0367
 3848W        W13328   0.854   0.273   1.221 -0.0799  0.1989 -0.1246
 3849W        W13329  12.940   6.588   8.655  0.1798 -0.1040  0.0708
 3850W        W13330   9.348   8.995   1.599  0.1454  0.1867  0.5544
 3851W        W13331   3.543   9.318   0.696 -0.2139  0.2591  0.2074
 3852W        W13332   1.874  14.325   7.790 -0.0478 -0.1833  0.0309
 3853W        W13333  15.037  15.038   8.075  0.0097  0.2358  0.0923
 3854W        W13334   0.213   0.065   1.964  0.0354 -0.1393  0.2831
 3855W        W13335   4.998  10.286   2.188  0.2913  0.1574  0.0581
 3856W        W13336   2.594   7.434   7.556  0.0915 -0.0909 -0.1545
 3857W        W13337  13.709   9.156   9.012 -0.4143  0.0677  0.1372
 3858W        W13338   2.854  14.482   8.152 -0.3050 -0.0354 -0.2682
 3859W        W13339   7.846  13.337   6.374  0.2027 -0.2078  0.0548
 3860W        W13340  14.804  12.164   2.829 -0.1871  0.0629  0.1314
 3861W        W13341   4.180  10.731   6.773  0.0992  0.1829 -0.3111
 3862W        W13342   1.017  12.170   6.618  0.0804  0.2056 -0.1660
 3863W        W13343   2.890  14.136   0.724  0.3941 -0.3274  0.0503
 3864W        W13344   2.430  12.059   1.911  0.0681 -0.0178 -0.1638
 3865W        W13345  12.400  13.168   6.298  0.0002  0.0397 -0.0622
 3866W        W13346  15.230  10.305   7.057 -0.0494 -0.1070  0.0385
 3867W        W13347   2.135   4.831   0.855  0.1531 -0.0831 -0.0812
 3868W        W13348   3.282  11.564   8.548 -0.0400 -0.1900  0.2412
 3869W        W13349   1.815   3.300   0.095 -0.0663 -0.1346  0.2819
 3870W        W13350  12.244   9.701   1.505 -0.0839  0.0554 -0.0488
 3871W        W13351   4.220  11.305   1.773  0.0514  0.1310  0.0856
 3872W        W13352   8.983  13.454   8.193  0.1768  0.1095 -0.1311
 3873W        W13353  12.634  15.120   8.476 -0.5029 -0.0166  0.3254
 3874W        W13354  14.228   0.252   7.538 -0.3140 -0.1752  0.5611
 3875W        W13355   3.440  13.647   8.275 -0.1514  0.2529  0.1556
 3876W        W13356   4.501   9.018   0.667  0.1423 -0.1414  0.0642
 3877W        W13357   4.858  13.332   6.573 -0.2315 -0.2908  0.1519
 3878W        W13358  15.373   7.553   0.226 -0.0275 -0.0214 -0.1671
 3879W        W13359   0.206   3.865   7.760  0.2512  0.2628  0.2505
 3880W        W13360  14.833   9.010   8.459  0.0980  0.2179 -0.1926
 3881W        W13361   0.981  10.074   2.583 -0.1962  0.1183 -0.0289
 3882W        W13362   0.414  11.434   8.214  0.2466 -0.0650 -0.1234
 3883W        W13363   4.354  14.252   7.433 -0.0548 -0.0290 -0.0605
 3884W        W13364   0.048   8.446   0.823  0.3872  0.1923 -0.1572
 3885W        W13365   3.401   6.673   1.293  0.1138  0.2703 -0.4313
 3886W        W13366   5.212  13.453   1.914  0.2115 -0.0827 -0.2128
 3887W        W13367   0.956  12.072   1.862 -0.1415  0.1355 -0.2515
 3888W        W13368   0.699  11.503   7.379 -0.1427  0.0526 -0.1014
 3889W        W13369   3.291   9.620   1.723 -0.0417  0.1356  0.2046
 3890W        W13370   2.735  10.809   0.143 -0.1663 -0.0560  0.2828
 3891W        W13371   2.665  12.793   1.302 -0.1735 -0.2450 -0.0067
 3892W        W13372  12.965  11.525   7.789  0.1322  0.0587  0.0258
 3893W        W13373   1.297  11.558   8.756  0.0072  0.1902 -0.0718
 3894W        W13374   4.221   9.589   6.989  0.1358  0.0402  0.1102
 3895W        W13375   8.611   8.065   0.811  0.1325 -0.0068  0.0242
 3896W        W13376   2.915   4.818   0.232  0.0830  0.2183  0.4425
 3897W        W13377   6.804  11.747   8.081 -0.4070 -0.0697 -0.0133
 3898W        W13378  10.942   6.677   0.247  0.0229  0.1398  0.0453
 3899W        W13379   3.829  11.706   1.828  0.2033  0.1552 -0.0151
 3900W        W13380  13.651  11.160   0.489 -0.1244  0.2180 -0.0210
 3901W        W13381  13.226  10.740   1.298  0.1538  0.1548  0.4086
 3902W        W13382   0.289  13.813   8.746  0.0615  0.0355 -0.0663
 3903W        W13383  13.865   9.077   6.902  0.0426  0.2130 -0.0759
 3904W        W13384   3.286  10.525   2.145  0.0010  0.0925  0.0711
 3905W        W13385   6.555   7.749   1.659 -0.2307 -0.2603 -0.0928
 3906W        W13386   4.284  12.011   1.036  0.0878  0.1209  0.1518
 3907W        W13387   3.099  10.821   7.621 -0.0976  0.0294  0.0603
 3908W        W13388   4.042   9.446   6.564 -0.0629  0.1956  0.1394
 3909W        W13389   3.456  11.925   7.826 -0.1482 -0.1139 -0.0206
 3910W        W13390   5.544   1.044   8.551  0.0870  0.3614 -0.1256
 3911W        W13391   3.518  14.981   6.805  0.0989  0.0411 -0.2016
 3912W        W13392   0.601   8.172   8.322  0.1694  0.2677 -0.1200
 3913W        W13393  15.076  11.143   1.273 -0.3033  0.2361 -0.2550
 3914W        W13394   3.879  10.295   0.630  0.0562  0.0814  0.0320
 3915W        W13395  10.490  10.717   1.388 -0.1920  0.0116 -0.0293
 3916W        W13396   3.643  12.332   0.497  0.2121  0.0148  0.0943
 3917W        W13397   3.598  13.219   7.498 -0.2519 -0.0967 -0.2059
 3918W        W13398   9.438  14.409   2.127  0.0247  0.0716  0.0208
 3919W        W13399   2.126   2.257   6.462  0.0790 -0.1849 -0.0033
 3920W        W13400   6.508   1.318   1.403  0.0614 -0.0306  0.1310
 3921W        W13401  14.608  11.768   7.181 -0.2508  0.1390  0.1779
 3922W        W13402   2.370   8.464   1.340 -0.0103 -0.1752 -0.1302
 3923W        W13403  15.112   8.484   6.385  0.2355  0.1868 -0.0388
 3924W        W13404   5.399   2.797   0.316 -0.0268  0.2679 -0.2168
 3925W        W13405  13.115  11.622   1.079  0.0443  0.1767 -0.0091
 3926W        W13406   0.646  13.402   0.313 -0.1254  0.1267 -0.1975
 3927W        W13407  13.536  11.402   6.316 -0.0067 -0.2596  0.1620
 3928W        W13408  13.219  12.731   8.804  0.0408 -0.2973 -0.0525
 3929W        W13409   6.896  12.662   8.957 -0.3150 -0.2809  0.1015
 3930W        W13410   6.363  11.088   6.892  0.0967 -0.0307  0.2043
 3931W        W13411  15.148   8.340   2.334  0.0765 -0.1317  0.1037
 3932W        W13412   0.837  11.095   8.346  0.0237 -0.0130 -0.1284
 3933W        W13413   3.101   8.073   6.410 -0.2531 -0.4947  0.2092
 3934W        W13414   6.178   5.112   6.882 -0.2800  0.0913  0.1106
 3935W        W13415   6.300   2.031   6.838  0.1276 -0.0208  0.1297
 3936W        W13416   4.781   9.108   9.032 -0.2233  0.2953 -0.0112
 3937W        W13417   1.837  13.024   7.972 -0.0606 -0.1925  0.0478
 3938W        W13418   0.257  13.873   1.111  0.1272  0.1378  0.1206
 3939W        W13419   1.090  11.473   0.609  0.1977 -0.1179  0.0012
 3940W        W13420  13.402  10.892   8.474 -0.1991 -0.0434 -0.0811
 3941W        W13421   4.363  10.692   1.277 -0.2191  0.2547  0.1942
 3942W        W13422   0.108  11.749   0.183 -0.3293  0.0244 -0.2749
 3943W        W13423   0.331  12.706   6.743  0.2731 -0.1416 -0.1340
 3944W        W13424   8.299  12.169   7.182 -0.0147  0.1453 -0.0559
 3945W        W13425   2.133  14.067   1.642 -0.1508  0.2937 -0.0731
 3946W        W13426  13.428  10.234   7.675  0.1070 -0.2715 -0.0122
 3947W        W13427   2.551   4.978   2.600  0.0050 -0.2692  0.4083
 3948W        W13428   2.283  12.427   7.762  0.1139  0.0301  0.2474
 3949W        W13429  11.480   3.856   1.285  0.1665  0.1162 -0.0716
 3950W        W13430  12.687  12.739   0.334  0.1108  0.3423 -0.0170
 3951W        W13431   4.440  12.461   6.627 -0.0699  0.0448 -0.2993
 3952W        W13432  13.794  11.946   7.708 -0.2336  0.0779  0.0859
 3953W        W13433  14.864   7.258   7.737 -0.0679 -0.0435 -0.1701
 3954W        W13434   0.124  12.525   8.203  0.0266 -0.0087  0.1203
 3955W        W13435   1.971   9.664   1.349 -0.1087  0.1599  0.0346
 3956W        W13436   1.543   7.817   8.592 -0.2843 -0.2494 -0.1677
 3957W        W13437   1.267   8.275   1.545  0.1334  0.1165  0.1411
 3958W        W13438   2.028  15.383   8.943 -0.1309  0.1846 -0.0063
 3959W        W13439   3.355   9.830   6.827 -0.1034 -0.3927  0.1497
 3960W        W13440   3.401  13.882   7.818  0.2916  0.1558  0.3466
 3961W        W13441  13.532  10.593   8.886 -0.4259  0.1260  0.1416
 3962W        W13442   3.307  11.378   7.663 -0.0071 -0.0555 -0.0880
 3963W        W13443  13.920   9.295   2.068 -0.0465 -0.0822 -0.0617
 3964W        W13444  14.033  14.498   6.769  0.0560 -0.0489 -0.2329
 3965W        W13445  14.366  10.897   6.706 -0.0180  0.1745  0.2137
 3966W        W13446  12.091   2.386   7.826  0.1831  0.0903 -0.0044
 3967W        W13447  14.788   8.086   0.483  0.3229 -0.1153 -0.1134
 3968W        W13448   0.484   2.318   8.041 -0.1186 -0.0593  0.1960
 3969W        W13449  15.107   8.425   1.478  0.0675 -0.2628 -0.2980
 3970W        W13450   2.711   0.479   0.257  0.0843  0.1543 -0.1235
 3971W        W13451   7.555  11.819   1.556 -0.1299 -0.0004  0.3733
 3972W        W13452  13.587  12.441   6.954  0.0928 -0.4792  0.0377
 3973W        W13453   7.888   1.312   0.450 -0.0402 -0.4219  0.1542
 3974W        W13454   0.797  12.083   1.419 -0.3025  0.0499 -0.2775
 3975W        W13455   1.509  11.266   2.701  0.0381 -0.0356  0.2141
 3976W        W13456   2.972  14.597   0.850  0.0723  0.1829  0.1984
 3977W        W13457  13.891  13.236   1.088  0.1316 -0.1107 -0.1050
 3978W        W13458   2.856  10.677   2.414  0.1524 -0.0281  0.1398
 3979W        W13459   3.076   0.940   8.143  0.2939 -0.0479 -0.0127
 3980W        W13460   2.304   9.598   0.313 -0.1586 -0.2065 -0.0166
 3981W        W13461   6.337   5.828   0.754 -0.1234  0.0139 -0.1480
 3982W        W13462   1.916   8.378   2.035 -0.1299  0.1269  0.1369
 3983W        W13463   5.885   0.766   7.745  0.0117  0.3297 -0.1414
 3984W        W13464   6.779   6.519   8.990 -0.1471 -0.1479  0.3002
 3985W        W13465  12.620   9.752   2.005 -0.0043  0.0057  0.0273
 3986W        W13466   0.920  10.257   2.010 -0.2219  0.2300 -0.1091
 3987W        W13467   1.623   0.004   6.668 -0.0581  0.0981  0.1100
 3988W        W13468  14.996   5.282   7.816 -0.0500  0.2472  0.4022
 3989W        W13469   1.131  12.403   7.701 -0.2240  0.1180 -0.0099
 3990W        W13470   7.190   7.425   1.069 -0.2030  0.0271 -0.0175
 3991W        W13471  11.071  14.997   1.260 -0.0669 -0.2072 -0.0764
 3992W        W13472  15.097  14.490   8.337 -0.2339 -0.1700 -0.1773
 3993W        W13473   4.200  14.350   6.595 -0.1242 -0.1663 -0.1224
 3994W        W13474   1.720   0.210   8.581 -0.0018 -0.0209 -0.0865
 3995W        W13475   0.578   6.955   0.543  0.0252  0.0015 -0.2590
 3996W        W13476   1.456  13.396   7.791 -0.2347 -0.1762  0.0280
 3997W        W13477   2.615   7.219   1.172 -0.0417 -0.0612  0.0921
 3998W        W13478   7.192   6.308   1.996  0.3530  0.3364  0.1225
 3999W        W13479   5.885  11.576   0.649  0.0391  0.0932  0.0130
 4000W        W13480   1.615   9.673   1.810  0.1154 -0.1454  0.2822
 4001W        W13481   4.070  10.292   0.182  0.1306  0.1240 -0.1719
 4002W        W13482   7.285   7.500   2.002 -0.1210 -0.2610  0.3387
 4003W        W13483   4.664  14.422   8.188 -0.0612  0.2122 -0.1263
 4004W        W13484   5.161   4.483   1.268 -0.2102  0.0653  0.1734
 4005W        W13485   3.276   9.445   8.489  0.0405  0.1750  0.0006
 4006W        W13486   3.993  11.999   2.533  0.1724 -0.4468  0.0097
 4007W        W13487   4.217  14.082   1.658 -0.1480 -0.1319 -0.1266
 4008W        W13488   6.597  11.818   0.568 -0.1039  0.0931 -0.0258
 4009W        W13489   7.824  11.382   2.099 -0.0771 -0.1174 -0.3825
 4010W        W13490   4.633  13.975   7.879 -0.2035  0.3736 -0.0277
 4011W        W13491   9.260   7.422   0.605  0.0884 -0.0304 -0.0840
 4012W        W13492  12.803  13.579   1.818 -0.1927  0.3098 -0.1047
 4013W        W13493   6.134   0.042   8.296  0.0193  0.1601  0.0612
 4014W        W13494   4.337  13.201   8.380  0.2787  0.1611 -0.1482
 4015W        W13495   7.808  12.155   2.778 -0.0463  0.0099 -0.2944
 4016W        W13496   7.499  11.650   0.615 -0.1060  0.1408 -0.1406
 4017W        W13497   6.711  10.397   7.434  0.0932 -0.0216  0.0886
 4018W        W13498   3.512  12.124   2.591 -0.2531 -0.0433  0.2129
 4019W        W13499   9.452  12.759   7.909 -0.3979 -0.0741  0.2120
 4020W        W13500   7.150  10.821   0.663  0.1260 -0.2601  0.2298
 4021W        W13501   1.874  10.472   7.523 -0.1981 -0.3265  0.3738
 4022W        W13502   6.703   6.072   0.340  0.0239  0.1278 -0.1505
 4023W        W13503  11.346   7.065   0.964 -0.1391  0.3099 -0.0672
 4024W        W13504   8.107  10.976   1.280 -0.3175 -0.0323  0.2967
 4025W        W13505  14.204  10.381   0.022 -0.1282 -0.0698  0.3306
 4026W        W13506  10.378  10.136   0.686  0.1507 -0.1386  0.1429
 4027W        W13507   9.250  10.540   0.721  0.2811 -0.0480  0.0359
 4028W        W13508   1.915   0.273   0.274 -0.0543 -0.1093 -0.0466
 4029W        W13509   4.117  13.102   1.732  0.2162  0.1601 -0.0894
 4030W        W13510   6.750  13.145   6.793  0.1722 -0.0401  0.0512
 4031W        W13511   4.069  12.470   1.111  0.3320  0.0684  0.1285
 4032W        W13512   8.201  12.177   8.022  0.3490  0.2394 -0.0143
 4033W        W13513   5.620  11.787   2.157  0.0823  0.1503  0.2617
 4034W        W13514   3.961   4.632   8.017  0.1534 -0.2250  0.2736
 4035W        W13515   3.491   6.212   7.666  0.1968  0.3640 -0.3336
 4036W        W13516   3.202  10.793   0.376  0.1492 -0.1163  0.4093
 4037W        W13517   3.637   8.225   7.235  0.0980  0.4974 -0.1518
 4038W        W13518   3.910  12.947   7.107 -0.1346 -0.0485  0.3981
 4039W        W13519   7.502   3.903   7.628 -0.0369  0.0880 -0.1275
 4040W        W13520   2.199   1.539   7.466  0.3575 -0.3274  0.2943
 4041W        W13521  10.456   8.724   8.766 -0.0351  0.1266  0.0666
 4042W        W13522   4.749   7.552   7.400 -0.2412 -0.1968  0.1294
 4043W        W13523   8.179   0.458   9.100 -0.1129 -0.4118  0.1381
 4044W        W13524  15.354   8.135   1.852  0.0943  0.3551  0.1910
 4045W        W13525  11.650   8.767   8.996  0.6898  0.0693  0.1142
 4046W        W13526   2.332  11.905   0.636 -0.1510  0.0112  0.3342
 4047W        W13527   5.171   0.117   8.937  0.2174  0.0115  0.0340
 4048W        W13528   5.831  11.916   8.006  0.0130 -0.1760  0.0257
 4049W        W13529   9.413   1.643   0.631 -0.2225  0.2474 -0.1607
 4050W        W13530   4.124   9.777   1.790  0.4558 -0.1461  0.1138
 4051W        W13531   1.173   2.194   1.735 -0.2676  0.3239  0.0469
 4052W        W13532   7.431   2.572   8.774  0.1334  0.0109  0.0348
 4053W        W13533   3.898   8.888   8.841  0.1711  0.0997 -0.2805
 4054W        W13534  12.453  14.859   8.838 -0.0929  0.0609  0.1000
 4055W        W13535  11.359  11.596   0.945 -0.3196 -0.0537  0.2778
 4056W        W13536   5.833  10.303   8.557  0.1444 -0.1001  0.1079
 4057W        W13537   6.425  10.873   6.405 -0.1364  0.2528 -0.3714
 4058W        W13538   6.319   9.331   7.102  0.0579  0.2272  0.0154
 4059W        W13539   0.084   8.173   1.333 -0.3154 -0.0214 -0.1545
 4060W        W13540   5.262   1.203   7.513 -0.0582  0.3022 -0.0910
 4061W        W13541   9.259   3.810   7.436 -0.1142  0.1017 -0.1991
 4062W        W13542   8.805  10.708   7.741 -0.0498  0.0653  0.1048
 4063W        W13543   8.756  11.100   1.958  0.3747 -0.0226  0.0987
 4064W        W13544   6.061  12.604   7.182 -0.1992  0.3182 -0.2548
 4065W        W13545   5.103   7.782   6.575 -0.2120 -0.1133  0.0869
 4066W        W13546   2.367  10.670   1.020 -0.0533  0.1751  0.0016
 4067W        W13547   2.898  10.314   2.006  0.0898 -0.2147 -0.1359
 4068W        W13548   1.834  10.324   8.007  0.0796  0.1738  0.2013
 4069W        W13549   2.811   9.186   8.651  0.1623 -0.1832 -0.0752
 4070W        W13550   3.242  11.891   7.035 -0.3467  0.0720 -0.0491
 4071W        W13551   8.292  12.336   0.392 -0.1804  0.1929  0.2642
 4072W        W13552   8.860   7.556   0.043 -0.2277 -0.1393 -0.1187
 4073W        W13553  11.853  13.981   1.189  0.3265 -0.2188  0.1716
 4074W        W13554   0.277  10.392   0.062  0.2667 -0.0536 -0.1062
 4075W        W13555   7.763  10.412   9.024 -0.0250  0.1480 -0.0180
 4076W        W13556   9.178   0.326   0.038  0.3004  0.1677 -0.1584
 4077W        W13557   5.630  10.115   7.462  0.3374  0.0218 -0.3400
 4078W        W13558   9.744  15.372   0.073  0.2623  0.0977  0.3387
 4079W        W13559   8.077  10.989   7.772  0.0410  0.1816 -0.0493
 4080W        W13560  10.171  10.878   7.740 -0.0676  0.0306 -0.3455
 4081W        W13561   1.721   9.240   8.024 -0.0446 -0.1159  0.2443
 4082W        W13562   4.833  12.311   0.471 -0.0482  0.1307 -0.0637
 4083W        W13563   3.782   0.725   7.287  0.3955 -0.1883  0.2536
 4084W        W13564   1.154   9.442   7.742 -0.0828  0.0449  0.0297
 4085W        W13565   9.582   5.416   9.002  0.2219 -0.1931 -0.2006
 4086W        W13566   7.847   9.961   2.609  0.1058  0.1938 -0.0653
 4087W        W13567   0.973   0.584   0.524 -0.1124  0.2519 -0.1272
 4088W        W13568   5.691   3.606   1.973  0.1382  0.1091  0.1949
 4089W        W13569   7.646  11.361   2.589  0.2380 -0.0303  0.0138
 4090W        W13570   8.370  13.844   0.619 -0.0722  0.0555  0.3581
 4091W        W13571   3.248  14.955   1.129 -0.2208  0.2243 -0.0581
 4092W        W13572   6.202   9.831   0.178  0.3242  0.1576  0.1899
 4093W        W13573   3.270  12.022   0.720  0.0978 -0.0499 -0.0584
 4094W        W13574   4.877  13.780   2.195  0.0700  0.0758  0.2612
 4095W        W13575   3.992  12.186   8.463 -0.0290 -0.0969 -0.0218
 4096W        W13576   5.968  11.415   7.890  0.3001 -0.4111  0.0529
 4097W        W13577   2.798  11.910   0.601 -0.1220  0.1185 -0.4005
 4098W        W13578   7.711   5.802   7.920 -0.1118 -0.0102  0.0584
 4099W        W13579   0.592   8.527   0.851 -0.2049  0.0176  0.0610
 4100W        W13580   9.953  12.631   3.017  0.0991  0.1305  0.0970
 4101W        W13581   5.185   9.951   8.053 -0.3002  0.1207 -0.0558
 4102W        W13582   3.368  11.970   1.887  0.0118  0.0996  0.1907
 4103W        W13583  13.543  11.403   8.217  0.2347  0.2232  0.3563
 4104W        W13584   6.080   4.642   1.399  0.0201  0.1708 -0.0220
 4105W        W13585   9.771  15.177   8.162  0.0752  0.0433 -0.0216
 4106W        W13586   2.457   5.098   7.541  0.0956 -0.2179 -0.1204
 4107W        W13587  15.319  12.964   1.332 -0.1694 -0.1750 -0.0010
 4108W        W13588  13.945  11.283   0.105 -0.4731 -0.0374 -0.0246
 4109W        W13589  10.663   9.415   7.654  0.1700 -0.2022 -0.3980
 4110W        W13590   3.612  12.561   0.973  0.3620  0.2947  0.0301
 4111W        W13591   4.883   0.846   0.757 -0.4409 -0.2350  0.2458
 4112W        W13592   3.066  11.664   8.012  0.3603  0.0695 -0.1086
 4113W        W13593   6.150  13.643   0.270  0.2234  0.0516 -0.2656
 4114W        W13594   1.568   4.984   0.317  0.2380  0.2313 -0.2820
 4115W        W13595   3.739  12.007   0.939 -0.2506 -0.3784  0.0671
 4116W        W13596   3.044  11.000   0.782  0.2765 -0.1261 -0.1437
 4117W        W13597   3.352  11.445   6.637  0.1260  0.0655  0.2881
 4118W        W13598   7.231  10.527   2.354  0.2477  0.0344  0.1625
 4119W        W13599   5.094  11.109   1.837 -0.0948  0.4775 -0.0483
 4120W        W13600   6.352  13.496   0.897 -0.4599  0.1970 -0.1422
 4121W        W13601   1.327   8.728   7.186  0.1514 -0.3644  0.0009
 4122W        W13602   3.090  12.957   9.069  0.0598  0.0614 -0.0805
 4123W        W13603   4.392  10.097   7.866  0.0660  0.0427 -0.0110
 4124W        W13604   0.248  10.290   8.379 -0.2243 -0.1087 -0.1517
 4125W        W13605   6.422  13.204   7.631 -0.1053 -0.0390  0.0763
 4126W        W13606   7.826   0.120   7.832 -0.1920  0.1485  0.1058
 4127W        W13607   6.967  11.793   1.633 -0.2149 -0.4438 -0.1637
 4128W        W13608   6.951   8.738   0.218  0.1319 -0.0530 -0.2076
 4129W        W13609   2.444  14.468   7.121  0.3779 -0.1035 -0.0858
 4130W        W13610   6.818   9.834   8.258 -0.0907 -0.3635  0.2816
 4131W        W13611   2.659  13.666   0.224  0.1892  0.2650  0.1122
 4132W        W13612   6.730   5.653   0.098 -0.0613 -0.0688 -0.3172
 4133W        W13613   9.654   6.891   0.035 -0.1522 -0.1169 -0.1448
 4134W        W13614   3.618  14.876   1.489 -0.4910  0.3380 -0.0874
 4135W        W13615   4.218   8.809   1.066 -0.3463 -0.1901  0.0854
 4136W        W13616  14.861  11.351   8.962 -0.1191 -0.0951  0.0087
 4137W        W13617   8.011  10.118   8.644  0.0176  0.0122 -0.0403
 4138W        W13618   5.619  13.533   9.022 -0.1625 -0.3354 -0.1269
 4139W        W13619   4.512  10.692   8.780 -0.2136 -0.0634 -0.1299
 4140W        W13620   5.235  12.094   2.168  0.2064 -0.1662  0.0675
 4141W        W13621   7.660   9.238   7.077 -0.1001  0.0315  0.1632
 4142W        W13622   3.512   8.693   1.459 -0.0273  0.3227 -0.3876
 4143W        W13623   4.359  10.393   8.353  0.1521  0.2396 -0.0035
 4144W        W13624   2.682   9.163   0.424 -0.0429  0.0336 -0.3188
 4145W        W13625   9.411  14.448   8.175  0.2486 -0.0288  0.4184
 4146W        W13626   6.118   7.385   1.892  0.0052  0.1059 -0.0716
 4147W        W13627   7.815   6.287   8.420  0.3153 -0.1274  0.1124
 4148W        W13628   6.424   4.283   7.119 -0.0074 -0.0530  0.2462
 4149W        W13629   3.880  13.349   9.026  0.1796 -0.0460  0.0634
 4150W        W13630   4.412   0.218   1.626 -0.1559  0.2549  0.1144
 4151W        W13631   4.964  13.517   1.322  0.0197  0.1807 -0.1574
 4152W        W13632  10.763   8.984   0.582 -0.1436 -0.3174 -0.2871
 4153W        W13633   4.765   9.192   7.385  0.2759  0.2449 -0.2638
 4154W        W13634   4.362  11.423   8.639  0.3411  0.3025 -0.0546
 4155W        W13635   5.503  13.038   1.484  0.0319 -0.0724 -0.2571
 4156W        W13636   7.360  11.808   2.428 -0.0508 -0.0981  0.2497
 4157W        W13637   4.887   8.901   6.946 -0.1030  0.0103 -0.1395
 4158W        W13638   6.162   9.001   1.502 -0.2416  0.0309  0.1244
 4159W        W13639   3.644  11.652   0.493  0.2507  0.1477 -0.2199
 4160W        W13640  11.305  11.217   0.582  0.0728 -0.0872 -0.1158
 4161W        W13641   6.864  10.974   2.449  0.0059  0.1677 -0.1668
 4162W        W13642   5.341   7.144   6.701 -0.2214  0.0151 -0.3436
 4163W        W13643   7.161   4.802   1.036 -0.0308  0.1099 -0.2262
 4164W        W13644   4.482  12.252   1.409  0.1236 -0.1367 -0.2405
 4165W        W13645   7.504   9.150   1.522  0.0509  0.0862 -0.4491
 4166W        W13646   8.081  12.017   7.578 -0.3881 -0.0452 -0.1510
 4167W        W13647   7.582   8.970   0.357 -0.3687 -0.2207 -0.3378
 4168W        W13648   3.619  12.339   8.041 -0.1131  0.0614 -0.4935
 4169W        W13649   5.988   6.938   7.333  0.1158  0.2941  0.0129
 4170W        W13650   2.435   7.086   2.912  0.0277 -0.0549  0.1129
 4171W        W13651   3.874  13.979   8.095  0.1273 -0.0956  0.2247
 4172W        W13652  13.643   9.811   8.482  0.4178  0.0587 -0.2597
 4173W        W13653   7.489  12.609   1.848  0.0529  0.0521  0.2123
 4174W        W13654  15.381   7.978   8.806  0.0908 -0.1013  0.4101
 4175W        W13655   8.184  14.470   2.036  0.3156  0.0133  0.0304
 4176W        W13656   4.522  11.419   1.392  0.1321 -0.1574 -0.1265
 4177W        W13657  14.881  12.292   8.938  0.0167  0.0093  0.2327
 4178W        W13658   6.561   2.672   8.784  0.0340  0.0306 -0.3242
 4179W        W13659   2.227   0.974   0.958 -0.0290 -0.0541  0.0405
 4180W        W13660   7.999  14.458   0.050  0.1071  0.2192  0.0754
 4181W        W13661   1.659  11.906   1.283 -0.4348 -0.1059  0.1211
 4182W        W13662   7.884  12.304   6.315 -0.0483  0.1523 -0.0860
 4183W        W13663  11.172  10.856   2.564  0.1635 -0.2044 -0.0725
 4184W        W13664   2.762  11.710   3.130 -0.0246  0.1758 -0.2694
 4185W        W13665   4.893   2.853   8.697  0.1463 -0.4958 -0.3825
 4186W        W13666   2.276  12.484   6.772 -0.0402 -0.2247  0.2095
 4187W        W13667   4.873  11.492   7.853  0.1419 -0.2401  0.1121
 4188W        W13668   3.528  11.047   0.034 -0.0063 -0.0151  0.0251
 4189W        W13669   5.660   8.299   1.125 -0.2666  0.0074 -0.1236
 4190W        W13670  10.608   0.538   7.111 -0.1111 -0.0306  0.0036
 4191W        W13671   4.359  15.167   1.695  0.0789  0.1256 -0.2189
 4192W        W13672   0.137  10.544   1.947 -0.0352 -0.0201 -0.2022
 4193W        W13673   6.703   0.203   7.535 -0.0602  0.0826 -0.0494
 4194W        W13674  13.504  12.986   0.602  0.0356  0.0455  0.0932
 4195W        W13675  10.322   0.190   1.016  0.2752 -0.2747  0.2055
 4196W        W13676  10.465  14.142   0.204  0.0772  0.1383  0.1077
 4197W        W13677   7.213  11.624   7.341  0.4390  0.1733 -0.1684
 4198W        W13678   7.479  10.446   0.509  0.1388 -0.0574 -0.1039
 4199W        W13679  11.450   9.661   8.118  0.1246 -0.0814  0.0460
 4200W        W13680   9.644   9.714   9.074  0.0702 -0.0419 -0.3746
 4201W        W13681   8.048   0.603   7.570  0.1625 -0.2790 -0.2532
 4202W        W13682   2.478   0.211   7.363  0.0936 -0.1039  0.0843
 4203W        W13683  13.203   0.498   7.483  0.1091  0.1545  0.0614
 4204W        W13684  13.839  12.523   8.056  0.2025 -0.1521 -0.0172
 4205W        W13685   6.448  12.855   8.914 -0.0521 -0.0318 -0.1832
 4206W        W13686   4.580   0.037   1.219  0.1013  0.1622  0.0207
 4207W        W13687   6.896   2.523   7.917 -0.1925 -0.0288 -0.0943
 4208W        W13688   3.285  12.182   6.575 -0.1981 -0.0588  0.3152
 4209W        W13689   3.111   9.598   0.854  0.0553 -0.2043  0.0181
 4210W        W13690   8.983   7.498   1.011  0.0934 -0.0349 -0.0842
 4211W        W13691   9.890  11.186   0.699  0.1219 -0.0598 -0.2227
 4212W        W13692  12.338  10.996   1.192  0.2804  0.1965 -0.0631
 4213W        W13693  12.189  15.254   0.653 -0.1214 -0.0134  0.1245
 4214W        W13694   7.848   9.384   1.278  0.1186 -0.3265  0.0856
 4215W        W13695   7.319  12.125   1.945  0.1329 -0.0924 -0.1714
 4216W        W13696  11.546  10.685   6.717 -0.0074 -0.1310 -0.1725
 4217W        W13697  13.231  10.135   0.433 -0.0989 -0.2674  0.2075
 4218W        W13698   7.349  12.980   7.757  0.5611 -0.2013  0.1399
 4219W        W13699  11.437   2.514   1.633  0.0430  0.2039 -0.2750
 4220W        W13700  11.193   8.152   0.629  0.1167  0.2078 -0.2259
 4221W        W13701   6.870  15.226   6.556  0.0449  0.3004 -0.0512
 4222W        W13702  10.242  14.472   8.904  0.0414 -0.1245 -0.2338
 4223W        W13703   9.969  12.279   0.823 -0.2108 -0.2501 -0.0540
 4224W        W13704   7.445   3.448   0.262 -0.3181 -0.0897 -0.2927
 4225W        W13705  10.684  12.353   0.930 -0.0948 -0.0615  0.0379
 4226W        W13706  10.167   9.038   8.493  0.1763 -0.2094 -0.0277
 4227W        W13707   8.788  15.166   7.862  0.0680 -0.1125  0.2994
 4228W        W13708   7.149  10.555   0.155  0.0259 -0.0605  0.0405
 4229W        W13709   6.038  14.053   7.796 -0.0091 -0.3183  0.1058
 4230W        W13710   8.081   4.773   1.519 -0.0488 -0.0645  0.0408
 4231W        W13711   5.021   2.845   0.801 -0.1738 -0.0942 -0.1152
 4232W        W13712   6.779   1.966   7.766 -0.0736 -0.0671  0.1790
 4233W        W13713   6.839   8.158   7.500  0.0424  0.0475  0.2087
 4234W        W13714   8.105  10.835   9.044 -0.1048 -0.3227 -0.1102
 4235W        W13715   9.098  12.078   1.786  0.0856  0.2637  0.0632
 4236W        W13716   5.895  11.760   1.702 -0.1902  0.3876 -0.3084
 4237W        W13717   5.890  11.794   8.878  0.1066 -0.1216 -0.0117
 4238W        W13718   9.734  11.238   1.225  0.0542  0.1233 -0.0165
 4239W        W13719  14.575   7.263   9.005 -0.2874 -0.3097  0.1245
 4240W        W13720   5.132  12.248   7.257  0.0837  0.2433  0.1838
 4241W        W13721  15.017   6.676   7.370  0.1220  0.1072 -0.3951
 4242W        W13722   8.982  12.111   9.011  0.1622 -0.3327 -0.4438
 4243W        W13723   6.453  13.249   1.747  0.1032  0.0436  0.1959
 4244W        W13724   5.190  10.760   2.215  0.0228 -0.0694  0.2445
 4245W        W13725  10.668  12.846   7.560  0.5355  0.1944 -0.3562
 4246W        W13726   7.115  13.036   7.139  0.0021  0.1180  0.1238
 4247W        W13727   9.588  12.288   7.712  0.1261  0.1964 -0.2134
 4248W        W13728   5.012  13.934   1.016 -0.2426  0.1154 -0.2332
 4249W        W13729   1.928   9.201   1.580  0.1957  0.1211 -0.2151
 4250W        W13730   2.218   9.122   0.741  0.1789 -0.0929  0.1018
 4251W        W13731  11.169   2.354   8.591  0.2654  0.0745  0.1612
 4252W        W13732   6.785   8.179   1.426  0.0932  0.2415  0.0037
 4253W        W13733   3.272   9.068   8.855 -0.1867 -0.0457  0.2410
 4254W        W13734   8.721   8.832   7.812  0.2366 -0.0119  0.1573
 4255W        W13735   8.917   1.502   0.397  0.1368 -0.0270  0.0665
 4256W        W13736   9.102   5.149   1.009  0.2655  0.2593  0.0606
 4257W        W13737   4.906  14.846   6.916 -0.1141  0.0438 -0.1130
 4258W        W13738   7.037  13.951   1.102  0.1865  0.0092  0.0945
 4259W        W13739   9.776   1.581   2.289  0.1259 -0.0698  0.0355
 4260W        W13740   4.127   9.298   8.438  0.1210  0.1629  0.0756
 4261W        W13741   2.148  13.899   7.986 -0.1932 -0.1420  0.1387
 4262W        W13742   9.383   8.657   1.198 -0.0175  0.1362  0.4321
 4263W        W13743   6.755  12.109   1.193  0.0114  0.2993 -0.0505
 4264W        W13744  10.520  15.263   2.169  0.2516 -0.0868  0.0280
 4265W        W13745   1.191  14.391   7.571  0.1690 -0.1378  0.2338
 4266W        W13746   7.725   0.603   7.081  0.0251 -0.0871  0.2393
 4267W        W13747   9.621   3.580   7.158  0.3931 -0.1412  0.3888
 4268W        W13748  14.465   4.334   7.647  0.0304  0.0082 -0.1364
 4269W        W13749   4.376  11.821   8.334  0.0306 -0.3949  0.0800
 4270W        W13750  15.372  11.818   1.890 -0.0738 -0.2599  0.3848
 4271W        W13751  10.697   7.989   2.393  0.0976 -0.0940  0.3477
 4272W        W13752   2.909  11.870   0.123 -0.0030 -0.0561  0.0502
 4273W        W13753   8.323  12.961   7.616  0.2455  0.0484 -0.0926
 4274W        W13754   5.727  13.254   8.277 -0.1705 -0.2457 -0.1346
 4275W        W13755   9.791   1.108   2.006  0.0983 -0.0663  0.1995
 4276W        W13756   9.258  11.465   0.824  0.1584 -0.1182 -0.0448
 4277W        W13757  10.702   9.800   7.359 -0.1884 -0.3036 -0.2407
 4278W        W13758   3.320  10.161   0.726 -0.1548  0.0115 -0.0274
 4279W        W13759   7.286  11.884   8.348  0.0675 -0.1270  0.1329
 4280W        W13760   7.310  13.608   2.917 -0.1480  0.4033  0.0348
 4281W        W13761  10.020   6.658   8.024  0.0690 -0.0251 -0.0421
 4282W        W13762   7.099  10.752   7.214 -0.0609  0.2325 -0.0439
 4283W        W13763  12.487   4.570   8.568 -0.1120 -0.0343  0.0768
 4284W        W13764   7.895   7.770   0.455 -0.0915 -0.1469  0.1360
 4285W        W13765  15.232   4.430   1.180  0.0240  0.1898  0.0808
 4286W        W13766  15.147  14.424   1.557 -0.1753  0.1748  0.1286
 4287W        W13767   6.471   6.732   8.248  0.0400 -0.0931 -0.5219
 4288W        W13768   6.257  11.470   8.822 -0.2838  0.0813 -0.0175
 4289W        W13769   5.439   9.171   1.030  0.0735  0.3259 -0.1034
 4290W        W13770   6.570   5.694   2.266 -0.0359  0.0899 -0.0386
 4291W        W13771   9.174  13.032   8.243  0.0353  0.4906 -0.1994
 4292W        W13772   5.650  14.747   7.947 -0.3075  0.0025 -0.2253
 4293W        W13773   4.195  13.825   7.697 -0.0073 -0.1066  0.1546
 4294W        W13774  15.305   9.339   1.372 -0.2192 -0.3039 -0.3847
 4295W        W13775   7.233   7.460   8.113  0.3030  0.0076 -0.1318
 4296W        W13776   9.137   8.416   8.775  0.2379  0.1122  0.2892
 4297W        W13777  12.344   5.639   9.065 -0.0623 -0.2552 -0.0990
 4298W        W13778   6.990  10.315   6.945  0.3251  0.1293  0.0075
 4299W        W13779   9.818  14.050   1.308  0.2641 -0.1265 -0.0196
 4300W        W13780   9.530   8.322   0.399  0.2011 -0.0339 -0.1237
 4301W        W13781  12.208   5.190   7.885 -0.0491 -0.0543 -0.0417
 4302W        W13782  11.186   0.254   8.980 -0.1250  0.1658  0.3045
 4303W        W13783  11.762  13.049   8.140  0.2963 -0.2513 -0.0343
 4304W        W13784  13.430   7.842   7.956  0.0481  0.0413  0.0139
 4305W        W13785  12.092   9.911   6.555  0.1416  0.0244 -0.1118
 4306W        W13786   4.078  12.572   0.291  0.1323  0.2654  0.0991
 4307W        W13787  11.561  12.925   8.861 -0.0044 -0.2223 -0.2375
 4308W        W13788   8.508  14.701   0.808 -0.0750 -0.0483  0.2372
 4309W        W13789   8.192   9.376   7.674  0.0581 -0.0921 -0.1344
 4310W        W13790  11.188  13.859   2.380  0.3112 -0.1667 -0.2574
 4311W        W13791   7.565  12.271   7.621  0.1104  0.4821  0.2100
 4312W        W13792   9.759   3.214   8.822  0.0004 -0.0047 -0.1585
 4313W        W13793  12.464   7.552   8.769 -0.2485 -0.1836  0.0022
 4314W        W13794   9.435   7.891   7.790 -0.1189  0.3791  0.3358
 4315W        W13795   8.100  11.169   2.519  0.5557  0.0350 -0.0702
 4316W        W13796   8.223   1.728   6.922 -0.1545  0.0151  0.0465
 4317W        W13797   6.200   8.901   7.464  0.2657 -0.1493  0.1114
 4318W        W13798  12.856  13.212   2.238 -0.2083 -0.1290  0.1032
 4319W        W13799  10.366   1.294   8.854  0.0679  0.1232  0.2362
 4320W        W13800   5.369  11.646   0.429  0.1719 -0.0476  0.2761
 4321W        W13801   3.187   0.079   7.392 -0.3615  0.0575 -0.0232
 4322W        W13802  14.988   9.881   0.522 -0.1659  0.0051 -0.2165
 4323W        W13803   0.187   9.036   7.988 -0.0175  0.0554 -0.1688
 4324W        W13804  10.709  12.220   7.448  0.1069  0.2171 -0.3024
 4325W        W13805   6.981  11.324   7.946 -0.2061 -0.3102  0.0034
 4326W        W13806   1.884  14.078   8.819 -0.0300 -0.2460  0.0900
 4327W        W13807   2.546  14.871   8.059 -0.3165 -0.0130 -0.0015
 4328W        W13808  10.208  12.045   8.611 -0.1269  0.0265 -0.1527
 4329W        W13809  13.640   9.021   7.831 -0.0220 -0.2527  0.0696
 4330W        W13810   6.160   9.396   1.123  0.1532 -0.0517  0.1266
 4331W        W13811   7.593   0.568   7.587  0.1035 -0.2211 -0.0755
 4332W        W13812   4.969  12.631   1.464 -0.0571  0.1234  0.1913
 4333W        W13813   8.968  14.130   9.039  0.0609 -0.0052 -0.1512
 4334W        W13814  12.988  14.937   8.776  0.0458  0.2273  0.1127
 4335W        W13815  11.124   2.362   0.335 -0.1696  0.0532 -0.1397
 4336W        W13816  10.369  14.451   8.387 -0.1180 -0.1906  0.1358
 4337W        W13817   5.726  10.230   9.036  0.0130 -0.0749 -0.0245
 4338W        W13818  10.907   0.675   0.050  0.2696 -0.2701 -0.0943
 4339W        W13819  10.136  12.551   8.488  0.2840 -0.2366 -0.0924
 4340W        W13820   2.387  11.666   1.118  0.1053 -0.3752 -0.2440
 4341W        W13821  11.022   8.886   1.001 -0.1289 -0.3035  0.1438
 4342W        W13822   7.302  11.259   0.857 -0.1261  0.1015 -0.0109
 4343W        W13823  10.884   9.829   8.590  0.2266 -0.2035 -0.1219
 4344W        W13824   6.846   9.568   7.745  0.1198  0.1191  0.0467
 4345W        W13825   7.908  13.602   0.937  0.2437  0.3664  0.1813
 4346W        W13826   5.718  13.023   1.022 -0.0959 -0.2779 -0.0762
 4347W        W13827   4.854   8.601   8.963  0.0774  0.2153  0.1081
 4348W        W13828   8.468  10.875   0.319 -0.1840 -0.3220 -0.1978
 4349W        W13829   0.863  11.368   1.254 -0.0624  0.1834 -0.3684
 4350W        W13830  12.537   5.299   6.559 -0.0337  0.0845  0.1359
 4351W        W13831   6.606   2.903   7.915  0.2784  0.0408  0.0024
 4352W        W13832   8.689  12.530   7.240  0.2659 -0.1311  0.1011
 4353W        W13833   6.673   8.994   7.253  0.0357 -0.1601 -0.2009
 4354W        W13834   8.010  10.002   2.110 -0.0672 -0.1010 -0.2913
 4355W        W13835   7.336  11.150   2.214  0.1728  0.1422 -0.1935
 4356W        W13836   8.138   0.847   1.317  0.3085  0.1573 -0.2004
 4357W        W13837   8.265   9.731   7.311 -0.0239  0.2061  0.0292
 4358W        W13838   6.065  11.108   1.047  0.0363 -0.0698  0.1047
 4359W        W13839   9.795   2.206   8.444 -0.2402  0.2039  0.0327
 4360W        W13840   1.381  15.172   0.817  0.0518  0.3364  0.3878
 4361W        W13841  10.855  11.610   1.055  0.0433  0.3986 -0.0166
 4362W        W13842   3.525  15.372   2.120  0.0267  0.1018  0.1278
 4363W        W13843   8.834  10.126   6.424  0.1121 -0.0256 -0.1320
 4364W        W13844   8.507  14.574   2.479  0.0446 -0.0080  0.0538
 4365W        W13845  12.384  13.631   6.485 -0.3393 -0.3726  0.1478
 4366W        W13846   8.467  10.865   8.168 -0.3501  0.3773  0.3614
 4367W        W13847   7.694  11.678   7.438 -0.3145 -0.3007 -0.1166
 4368W        W13848   9.668  13.278   9.078 -0.0343  0.1420  0.0417
 4369W        W13849   2.659   1.695   0.668 -0.0575 -0.0854  0.2556
 4370W        W13850   9.011  14.672   2.164 -0.0518  0.2085 -0.1335
 4371W        W13851   7.119   7.606   9.095  0.0027  0.1121  0.5543
 4372W        W13852   9.845   7.480   8.884  0.0362  0.0749  0.1473
 4373W        W13853   8.566   9.784   7.736 -0.0450 -0.3293  0.0663
 4374W        W13854  11.655   2.979   6.881  0.0374  0.0688 -0.0995
 4375W        W13855   5.435  13.814   7.026  0.1095  0.1373  0.1803
 4376W        W13856   8.052  14.504   1.550  0.2285 -0.0219  0.0969
 4377W        W13857  13.414   7.462   0.597 -0.0118 -0.0866 -0.1492
 4378W        W13858   4.143   1.464   8.206 -0.1252  0.2641  0.3869
 4379W        W13859   4.963   0.208   7.347  0.0385 -0.2283  0.1857
 4380W        W13860   7.462   0.175   8.778 -0.0471  0.1527 -0.1121
 4381W        W13861  11.467  12.487   8.502  0.0070 -0.0255  0.0789
 4382W        W13862   7.567  10.835   0.129  0.2149  0.0928 -0.0031
 4383W        W13863  10.881  13.965   2.915 -0.1235 -0.3850 -0.0421
 4384W        W13864   4.142   9.773   1.247 -0.1190 -0.4414 -0.1865
 4385W        W13865   1.346  11.026   8.322 -0.0576 -0.0167  0.1295
 4386W        W13866   9.272   2.518   8.174  0.4393 -0.0321 -0.2260
 4387W        W13867  10.341  14.991   8.943  0.0973 -0.0656  0.1655
 4388W        W13868   3.390  10.900   7.057 -0.1352  0.2570  0.1445
 4389W        W13869   6.558  13.955   7.799 -0.1034 -0.2739  0.1156
 4390W        W13870   8.054  14.702   6.981  0.6038 -0.0246 -0.4364
 4391W        W13871  11.765   9.476   8.449 -0.0596 -0.0890  0.1342
 4392W        W13872   5.379  15.159   8.695 -0.0905 -0.0584 -0.1304
 4393W        W13873  12.630  14.020   8.425 -0.1811  0.1993 -0.1412
 4394W        W13874   5.835  10.676   8.191  0.0223  0.0098  0.0833
 4395W        W13875   2.792  11.060   7.944 -0.2838  0.0322  0.3168
 4396W        W13876   9.430  12.520   8.988 -0.1802 -0.0613 -0.3899
 4397W        W13877   2.234  11.996   7.496  0.2470  0.0669  0.2890
 4398W        W13878   9.393  10.458   2.587 -0.1954  0.1094 -0.1332
 4399W        W13879  10.889   4.037   9.069  0.1656 -0.5350 -0.0863
 4400W        W13880   9.064  14.662   7.173 -0.1358 -0.2412  0.0634
 4401W        W13881   0.212   5.438   6.197 -0.1959 -0.1377  0.1636
 4402W        W13882   1.469  12.283   8.082 -0.0485 -0.1665 -0.0316
 4403W        W13883  12.907  15.417   8.730 -0.3524 -0.0756 -0.2361
 4404W        W13884  10.945   9.806   1.370  0.0418 -0.1311  0.0780
 4405W        W13885  12.261   5.061   1.427 -0.0233  0.0366  0.2033
 4406W        W13886   7.357   1.151   0.543 -0.0768  0.2639  0.2150
 4407W        W13887   7.779  13.811   8.555  0.0708  0.0076  0.0440
 4408W        W13888  11.576  13.400   0.211  0.1587 -0.2712  0.0040
 4409W        W13889   9.714  15.173   2.107 -0.2032  0.1224 -0.1049
 4410W        W13890   3.761  13.262   8.479 -0.4297 -0.0260 -0.0797
 4411W        W13891  12.813  13.095   1.777  0.0742 -0.0116  0.0332
 4412W        W13892   6.837  12.904   7.575  0.1593 -0.1219 -0.1213
 4413W        W13893  10.007  10.364   8.547 -0.0463 -0.1782 -0.0304
 4414W        W13894  13.929   6.862   6.868 -0.0068 -0.0146  0.1699
 4415W        W13895  13.093   0.442   8.400  0.0869 -0.0508 -0.1828
 4416W        W13896   4.144  11.782   7.422  0.1056  0.0186 -0.1397
 4417W        W13897   6.564   9.815   0.545  0.3154  0.3238 -0.0873
 4418W        W13898   8.128  10.792   7.271 -0.0700  0.0441  0.1134
 4419W        W13899  13.470   6.133   0.512  0.1507 -0.3893  0.0518
 4420W        W13900   9.165  12.947   0.243 -0.2490 -0.1489 -0.1822
 4421W        W13901  13.485  10.689   0.533 -0.1052 -0.0389  0.0637
 4422W        W13902   2.949  14.729   0.309 -0.0459 -0.3017 -0.1346
 4423W        W13903   5.334  11.397   7.097 -0.2979  0.0680  0.0719
 4424W        W13904  13.528  14.409   0.837  0.0655  0.2317 -0.4508
 4425W        W13905   7.070  13.477   9.061  0.1062 -0.0657 -0.2838
 4426W        W13906   8.525  11.922   2.326 -0.0152  0.1650  0.0014
 4427W        W13907   9.955  12.632   2.068  0.0015 -0.2357  0.4424
 4428W        W13908   2.367   4.764   0.381 -0.0303  0.0080 -0.5803
 4429W        W13909   6.220  11.986   7.115 -0.4248 -0.2237  0.1467
 4430W        W13910  14.594   6.042   8.677  0.5474  0.0347  0.1365
 4431W        W13911   1.933  11.038   7.524 -0.0012 -0.1694  0.0289
 4432W        W13912   5.485  10.557   0.774  0.3250 -0.2227 -0.0284
 4433W        W13913   9.285  12.408   0.457 -0.3221 -0.0067 -0.2255
 4434W        W13914   0.565  12.307   6.849  0.1726 -0.2830  0.1021
 4435W        W13915   9.947  11.350   6.994 -0.0543 -0.0961 -0.0902
 4436W        W13916   6.117  10.457   1.579  0.0051 -0.3656 -0.3348
 4437W        W13917  11.741  13.483   0.667 -0.4762  0.2853 -0.0973
 4438W        W13918  13.873  10.932   7.621 -0.1754  0.1118  0.1945
 4439W        W13919  14.015  12.999   8.457 -0.0064  0.0567  0.1714
 4440W        W13920  12.161   6.424   8.570 -0.0571 -0.0646 -0.3887
 4441W        W13921   9.209  10.944   7.698 -0.1344  0.0273 -0.0149
 4442W        W13922   8.083  12.442   8.502  0.1788  0.2700 -0.1186
 4443W        W13923   3.648   9.049   0.186  0.0820 -0.1442  0.0473
 4444W        W13924  10.852  11.334   1.967 -0.0921  0.0879  0.3799
 4445W        W13925   5.862  11.602   7.081 -0.1416  0.2948 -0.3846
 4446W        W13926  11.725   9.259   1.823 -0.1107  0.2132  0.0292
 4447W        W13927  10.937  10.926   8.707 -0.0402 -0.3643 -0.1808
 4448W        W13928  13.912   9.255   1.385 -0.1070 -0.1864  0.0386
 4449W        W13929   8.067  10.101   0.174  0.0498 -0.1114 -0.0676
 4450W        W13930  12.499  10.975   6.952  0.1992  0.1954 -0.1916
 4451W        W13931   1.288  13.817   8.642 -0.1419 -0.0421 -0.1491
 4452W        W13932   7.497  10.873   7.622  0.0186  0.1275 -0.0007
 4453W        W13933  11.621   1.039   2.129  0.3235  0.0778  0.0851
 4454W        W13934  15.389   6.403   2.050  0.2095  0.3179  0.2320
 4455W        W13935  13.271  15.365   7.291  0.1682 -0.1255  0.2318
 4456W        W13936   9.542  11.439   8.923 -0.2129  0.1508 -0.0398
 4457W        W13937   8.384  12.741   1.653  0.0292 -0.2973 -0.0433
 4458W        W13938  14.307  13.153   6.891  0.2112  0.0172  0.2077
 4459W        W13939   9.741   6.034   1.604 -0.1414  0.1856 -0.0056
 4460W        W13940   8.322  12.835   1.126  0.1306 -0.0687 -0.0295
 4461W        W13941  11.252  12.400   0.461  0.0126 -0.2473  0.1303
 4462W        W13942  11.632   3.107   0.284 -0.2950  0.0440 -0.1087
 4463W        W13943  15.118  12.970   1.819  0.2144  0.1099 -0.1486
 4464W        W13944  12.594  13.724   1.326  0.0425  0.0231  0.1630
 4465W        W13945   7.490  13.898   6.899 -0.1129  0.0669 -0.0714
 4466W        W13946  13.540  10.343   8.399 -0.4571 -0.0747  0.1255
 4467W        W13947   8.014   6.420   0.141 -0.1468  0.0305  0.0647
 4468W        W13948   8.987   4.729   1.224  0.2259 -0.1500 -0.4531
 4469W        W13949  13.325  15.285   8.469  0.0975 -0.1235  0.0448
 4470W        W13950   7.542  12.455   6.707  0.0547 -0.0103 -0.0282
 4471W        W13951   1.005  11.553   8.263  0.2933 -0.0403  0.1444
 4472W        W13952   8.211  11.634   7.315  0.1331 -0.0219 -0.0185
 4473W        W13953  12.029  10.043   7.798 -0.2918 -0.0929  0.1150
 4474W        W13954   1.430   0.250   2.117 -0.3498  0.2765 -0.0053
 4475W        W13955  10.599   7.342   0.286 -0.1083  0.1123 -0.1876
 4476W        W13956  10.934  10.198   6.953  0.0487 -0.2152  0.1174
 4477W        W13957  14.777   1.333   2.113 -0.0499  0.3778 -0.1903
 4478W        W13958   0.726   7.424   7.737  0.2692  0.0692  0.2187
 4479W        W13959  11.942  10.413   7.264 -0.1290  0.1824  0.0661
 4480W        W13960  12.447  14.230   7.933  0.0788  0.3118 -0.1131
 4481W        W13961   8.097  12.764   0.492 -0.0760  0.0024 -0.0173
 4482W        W13962   9.662   1.665   7.161 -0.2096  0.0456 -0.1024
 4483W        W13963  10.725   9.687   9.035 -0.1015 -0.0568  0.1652
 4484W        W13964   7.520   6.054   2.281 -0.1132  0.0565 -0.0559
 4485W        W13965  11.014   7.609   2.281 -0.0282 -0.2222  0.2599
 4486W        W13966  11.825   8.579   7.880  0.0063  0.0206  0.1910
 4487W        W13967  12.974  10.727   0.774 -0.2067 -0.2660 -0.5004
 4488W        W13968  14.788  14.026   1.470 -0.0181  0.0801 -0.1246
 4489W        W13969  12.126  11.416   8.167 -0.2289  0.1002 -0.0135
 4490W        W13970  14.149   8.919   9.051  0.3551 -0.0389  0.1228
 4491W        W13971  12.724   8.497   7.464 -0.2719  0.0354 -0.1674
 4492W        W13972  12.820   7.896   8.660 -0.4311  0.0371 -0.1762
 4493W        W13973  11.600   2.254   8.186  0.1899  0.2278  0.0390
 4494W        W13974   3.456   0.923   0.219  0.1014  0.0799  0.0577
 4495W        W13975  14.527  13.982   6.991  0.0520 -0.0083  0.0450
 4496W        W13976  10.550   2.493   1.582 -0.2471  0.0007  0.0347
 4497W        W13977  12.942  15.420   7.724  0.1022 -0.1820 -0.1185
 4498W        W13978   9.986   5.731   8.949 -0.2081 -0.1183  0.1930
 4499W        W13979  10.045   7.992   7.646 -0.0740  0.1233 -0.2211
 4500W        W13980  13.500   8.357   8.409  0.0953 -0.3413 -0.0641
 4501W        W13981   3.321  10.400   8.380  0.1799 -0.1626 -0.1359
 4502W        W13982  10.143   9.641   8.928  0.2611 -0.1839  0.0117
 4503W        W13983   7.812   0.564   0.949  0.2515  0.0302  0.1512
 4504W        W13984  13.900  11.402   7.832  0.0061 -0.5573  0.1498
 4505W        W13985  12.579   7.308   8.217  0.0033  0.1145 -0.1147
 4506W        W13986  11.208  12.102   1.269 -0.0361 -0.3590 -0.1830
 4507W        W13987  10.478   8.904   7.732 -0.0104  0.2731  0.2835
 4508W        W13988  12.482   9.441   0.546  0.2597 -0.0973 -0.1121
 4509W        W13989   8.646  11.006   2.421 -0.1243 -0.4163 -0.0719
 4510W        W13990   1.088   9.713   0.513 -0.2141 -0.1068  0.2333
 4511W        W13991   1.322  14.085   1.781 -0.1857 -0.0663 -0.1073
 4512W        W13992   8.571  11.827   0.260  0.0707  0.0198 -0.0457
 4513W        W13993  11.894  13.240   8.953  0.2414  0.0350  0.0023
 4514W        W13994   9.995  11.728   8.220  0.0177 -0.1972  0.1683
 4515W        W13995  10.757   0.714   1.031  0.2871  0.0200  0.1744
 4516W        W13996  11.041  11.903   7.588 -0.0319  0.0983 -0.1001
 4517W        W13997   2.655   1.304   1.015  0.0999  0.2826  0.1748
 4518W        W13998  10.766   3.275   8.606 -0.4524 -0.3565  0.2231
 4519W        W13999  11.822   0.223   8.156 -0.0879  0.2922  0.1725
 4520W        W14000   9.798   4.692   0.550  0.0481  0.2835 -0.0435
 4521W        W14001   8.973   7.633   1.987 -0.1803  0.2667  0.2348
 4522W        W14002   6.916  10.649   8.403  0.1917  0.1071 -0.2221
 4523W        W14003  12.947   6.969   8.357  0.1297  0.0140 -0.2436
 4524W        W14004  11.103  10.616   1.008 -0.3556 -0.1497 -0.0526
 4525W        W14005  10.392   6.844   0.494  0.0172 -0.1996  0.0413
 4526W        W14006  14.945  10.213   9.043  0.3036 -0.0795  0.1241
 4527W        W14007   8.838   1.138   6.594 -0.0243  0.1789  0.2257
 4528W        W14008   5.977  11.440   2.058  0.0063  0.1028 -0.1869
 4529W        W14009   9.996  14.001   9.080  0.0194 -0.0582  0.1005
 4530W        W14010  10.827  14.611   0.531 -0.1398 -0.4074  0.0075
 4531W        W14011   7.876  10.445   7.526 -0.1165 -0.0584 -0.1947
 4532W        W14012   6.601   9.302   1.396  0.0606  0.0658 -0.2385
 4533W        W14013   0.090  12.958   0.806 -0.0172  0.0860 -0.1899
 4534W        W14014   4.428  11.623   6.987  0.0848  0.0160 -0.0862
 4535W        W14015   1.585   3.509   1.744 -0.0926 -0.0164 -0.0077
 4536W        W14016   9.374  12.331   6.389  0.1247  0.0360  0.0944
 4537W        W14017  13.395   7.116   2.227 -0.0342  0.2992 -0.2493
 4538W        W14018   8.521   1.560   0.991  0.2969 -0.0739  0.0619
 4539W        W14019  13.068  11.287   7.316  0.0028  0.1781 -0.1790
 4540W        W14020  12.657  13.490   0.812 -0.0590  0.1053 -0.1631
 4541W        W14021   0.896  10.130   0.869 -0.0260  0.1839  0.3075
 4542W        W14022  11.584  15.126   7.060 -0.1143  0.3682  0.1630
 4543W        W14023   0.805   5.905   8.981  0.1506 -0.2036 -0.1365
 4544W        W14024   2.666  11.945   7.256  0.1327  0.0076  0.3175
 4545W        W14025   0.377  12.883   8.561  0.0513  0.0078 -0.1589
 4546W        W14026   1.757   8.821   0.724 -0.2283 -0.1166  0.3615
 4547W        W14027  10.133  15.213   0.878  0.0517 -0.0907  0.2000
 4548W        W14028  12.084  13.290   6.704 -0.1159 -0.0762 -0.0730
 4549W        W14029   8.117   2.065   9.028  0.2448  0.1239  0.0909
 4550W        W14030  12.958   9.121   0.537 -0.1379  0.2355  0.0346
 4551W        W14031   8.792  11.547   1.053  0.0866 -0.0917 -0.1947
 4552W        W14032  11.774   6.080   6.774 -0.2505  0.3670 -0.0034
 4553W        W14033   1.192   6.051   8.160 -0.2107  0.2476  0.3814
 4554W        W14034  10.158  10.703   0.705 -0.1517  0.0551 -0.1175
 4555W        W14035  12.323   9.681   7.497  0.0910 -0.0389  0.2939
 4556W        W14036  12.351   9.749   8.162 -0.0811  0.0419 -0.1612
 4557W        W14037   7.027   9.571   6.378 -0.1880 -0.1395 -0.0880
 4558W        W14038   6.375  14.422   8.053  0.3119 -0.1554  0.1592
 4559W        W14039   9.141   9.533   1.411 -0.1904 -0.2645  0.1854
 4560W        W14040   7.837  12.191   1.796  0.0551 -0.0051  0.3748
 4561W        W14041  10.298   3.289   8.863  0.4636 -0.0455  0.1983
 4562W        W14042   8.921  14.725   8.072 -0.2666 -0.2043  0.0493
 4563W        W14043   5.882   9.014   7.070 -0.2000  0.0866 -0.0380
 4564W        W14044   9.647  15.177   7.602  0.1853  0.1053  0.1879
 4565W        W14045   5.545  10.713   6.686 -0.0726  0.0715 -0.1247
 4566W        W14046   9.651  12.335   6.819  0.1871 -0.2163  0.1153
 4567W        W14047   7.791  12.739   7.683  0.1593 -0.0482  0.0936
 4568W        W14048  14.437  14.309   7.559  0.3234  0.3108 -0.1265
 4569W        W14049  10.067  12.805   2.506 -0.1762 -0.0544  0.1474
 4570W        W14050  13.281  13.032   1.600  0.0184  0.2529  0.1746
 4571W        W14051   0.881   8.878   0.089 -0.3188 -0.0742  0.2065
 4572W        W14052   9.868   8.885   7.580  0.1610  0.1251 -0.2440
 4573W        W14053  10.487   9.251   2.049  0.2249 -0.0041 -0.0908
 4574W        W14054   0.348  12.426   0.841 -0.2102 -0.0422 -0.0583
 4575W        W14055   6.899   9.534   8.624  0.1186  0.0178 -0.1296
 4576W        W14056  14.143  14.679   1.521  0.1808  0.4982  0.0650
 4577W        W14057   8.646  10.431   0.198 -0.2774 -0.0526 -0.3927
 4578W        W14058  11.190  11.918   6.357 -0.2750  0.0713  0.0571
 4579W        W14059  11.107  10.745   6.973 -0.3528 -0.1547  0.1631
 4580W        W14060  10.151   8.028   2.505 -0.2890  0.1383 -0.0975
 4581W        W14061   4.087   0.765   1.986  0.2227  0.1873 -0.1248
 4582W        W14062  11.224   8.478   1.734 -0.2499  0.0592 -0.0507
 4583W        W14063  11.894   4.875   0.918  0.0565  0.0893 -0.0258
 4584W        W14064  10.210   0.012   9.075 -0.0084  0.0209  0.2168
 4585W        W14065   7.942   5.557   9.100  0.0591  0.2576 -0.0814
 4586W        W14066   6.824   9.251   8.132  0.0153 -0.1923  0.0469
 4587W        W14067  13.385   9.472   0.820 -0.3413  0.2036  0.0966
 4588W        W14068   3.579  11.629   1.392  0.0136  0.2801  0.3220
 4589W        W14069  13.449  12.924   6.707  0.0851  0.1348 -0.2930
 4590W        W14070   9.643   1.800   1.632  0.0949 -0.1264  0.0050
 4591W        W14071  10.826   9.452   6.557 -0.2083  0.1326 -0.0011
 4592W        W14072   9.075   0.429   7.832  0.1788  0.1078  0.1704
 4593W        W14073  12.107  13.579   1.691 -0.0045  0.0943  0.0714
 4594W        W14074   9.977  10.877   8.435 -0.0095 -0.0235 -0.2434
 4595W        W14075  15.035  14.440   7.824  0.0421 -0.0217  0.0132
 4596W        W14076   2.856  13.403   2.106  0.0908 -0.1000 -0.1821
 4597W        W14077  13.037  11.503   0.103  0.1505  0.1304 -0.1882
 4598W        W14078  10.042  10.068   6.727  0.1287  0.4871  0.1649
 4599W        W14079  14.702   0.325   9.055  0.0612 -0.0887 -0.2074
 4600W        W14080   5.093   9.792   7.397 -0.0598 -0.1247  0.3331
 4601W        W14081  14.569  12.858   7.191  0.1403 -0.0295 -0.0014
 4602W        W14082  14.491   6.548   8.512  0.0572 -0.0500  0.0825
 4603W        W14083   0.302   7.332   0.499  0.2113 -0.0313  0.0126
 4604W        W14084  11.723  13.711   6.551  0.1186  0.0458 -0.1287
 4605W        W14085  14.877  13.138   2.423 -0.3152 -0.0386 -0.1131
 4606W        W14086   5.649   0.984   0.023 -0.2709 -0.3898 -0.0265
 4607W        W14087   0.807   2.551   2.127 -0.3205 -0.2253 -0.0406
 4608W        W14088  14.158   4.233   0.641 -0.3593 -0.1452  0.0738
 4609W        W14089  12.763  10.686   6.591 -0.1536  0.0832 -0.3452
 4610W        W14090   7.109   8.043   6.487  0.0415 -0.1381 -0.1490
 4611W        W14091  12.244  10.948   8.357 -0.0483  0.2136 -0.0908
 4612W        W14092   1.272   9.564   6.748  0.3150  0.0447 -0.0596
 4613W        W14093   1.136   0.712   1.828  0.2018 -0.1854  0.0465
 4614W        W14094   0.730  11.176   6.946 -0.2173 -0.2242 -0.0572
 4615W        W14095  11.616   9.448   7.085  0.1498 -0.0322  0.1154
 4616W        W14096  11.665  11.082   7.550  0.0456  0.0692  0.4234
 4617W        W14097  14.992   5.718   1.707  0.0083 -0.2146 -0.0695
 4618W        W14098  13.518   7.810   1.801 -0.3650 -0.0388  0.0799
 4619W        W14099   0.421   8.651   9.027 -0.0591 -0.4905 -0.0377
 4620W        W14100   9.637   9.305   7.744 -0.0344  0.1631 -0.0251
 4621W        W14101   0.413  11.375   9.074 -0.1650  0.3183  0.0122
 4622W        W14102  13.651   1.677   1.361  0.1581 -0.0434  0.2606
 4623W        W14103  10.909  13.168   7.999  0.0980 -0.3259  0.1283
 4624W        W14104   1.716   3.789   0.044 -0.0042  0.0625  0.0718
 4625W        W14105   1.295  10.021   0.165  0.0047  0.1186  0.1082
 4626W        W14106  15.444   0.831   8.940 -0.1751 -0.0086  0.1578
 4627W        W14107  13.033   9.530   6.872 -0.2398  0.1919 -0.0121
 4628W        W14108  12.056   8.851   0.112  0.0809 -0.0584  0.1085
 4629W        W14109  15.247  13.579   8.269 -0.4095 -0.1440 -0.2041
 4630W        W14110   5.173   8.608   6.613 -0.0609 -0.1036  0.0932
 4631W        W14111  12.400  13.740   6.943 -0.0974  0.2131  0.1849
 4632W        W14112   1.532  13.433   0.910 -0.1281 -0.1154  0.1903
 4633W        W14113  15.349   8.823   1.149  0.4715  0.1464 -0.1113
 4634W        W14114  12.928   8.506   2.153  0.1002 -0.1866 -0.1201
 4635W        W14115  14.594   9.204   0.236  0.1170  0.1952  0.0205
 4636W        W14116  11.967  14.549   8.901  0.0084 -0.2608  0.0147
 4637W        W14117   9.652  10.162   0.217  0.0042 -0.2596 -0.3793
 4638W        W14118   0.443  11.012   7.458  0.0268  0.2967 -0.2906
 4639W        W14119   6.488  13.974   7.218  0.0378  0.1362 -0.0931
 4640W        W14120   8.099   7.574   6.908  0.3539 -0.2569 -0.3329
 4641W        W14121   5.712   9.770   0.128 -0.2704 -0.0986  0.0575
 4642W        W14122  14.364   8.255   7.517  0.0706  0.0114  0.1208
 4643W        W14123  14.313  11.128   1.560  0.0639  0.0333 -0.1635
 4644W        W14124  13.916   9.594   8.075 -0.3197  0.0289 -0.0921
 4645W        W14125   9.200   6.667   1.313  0.0966  0.1384 -0.0512
 4646W        W14126   8.256  10.205   8.192 -0.2551 -0.0850  0.0063
 4647W        W14127  13.385  14.595   1.296 -0.1194  0.0118  0.1563
 4648W        W14128  12.815   2.440   1.150  0.0483 -0.1345  0.1473
 4649W        W14129  12.458  11.828   2.389  0.0339 -0.0119 -0.2071
 4650W        W14130   0.565   2.214   0.715 -0.1528  0.0011 -0.1163
 4651W        W14131   1.557  12.673   0.405 -0.0695  0.0440 -0.1535
 4652W        W14132   0.263   8.262   7.440 -0.0929 -0.0440 -0.1162
 4653W        W14133  10.821  12.058   8.268  0.0356  0.0389 -0.1838
 4654W        W14134   2.823  11.354   8.454  0.0222 -0.0385 -0.0748
 4655W        W14135   1.706   3.603   7.196  0.3060 -0.0222  0.0404
 4656W        W14136  13.780   0.499   7.797  0.0801  0.0672  0.1323
 4657W        W14137   0.036   9.785   0.719 -0.0904 -0.2064 -0.0351
 4658W        W14138  12.967   9.269   1.035  0.0904 -0.1178 -0.1805
 4659W        W14139  10.997  11.120   0.944  0.1458  0.1311  0.0444
 4660W        W14140   2.142   8.941   8.721  0.1935 -0.1045 -0.2710
 4661W        W14141   3.001   7.027   6.935 -0.3001  0.0234  0.3159
 4662W        W14142   1.827   1.731   6.664 -0.0830 -0.0560  0.4464
 4663W        W14143   8.549   1.345   7.815 -0.0969  0.2035 -0.1525
 4664W        W14144   1.418  14.133   9.011  0.1767  0.3703 -0.0814
 4665W        W14145   2.242   9.719   8.568  0.1517  0.1527  0.1741
 4666W        W14146   1.009   4.618   2.246  0.1121 -0.2027 -0.3437
 4667W        W14147   8.105   4.244   0.881 -0.0138 -0.3018 -0.1130
 4668W        W14148  12.484  13.173   0.329 -0.1049 -0.1636  0.2375
 4669W        W14149   4.028   0.235   9.016 -0.3536 -0.3322  0.0182
 4670W        W14150   3.952   8.077   0.263  0.3447 -0.2118 -0.4931
 4671W        W14151  11.373   7.432   7.713 -0.0705  0.0523  0.0255
 4672W        W14152   6.099  13.796   1.160  0.0815  0.2680 -0.0802
 4673W        W14153  12.244  12.659   0.612  0.0012 -0.2531 -0.3708
 4674W        W14154  15.354   7.298   7.566 -0.0197 -0.3724  0.0820
 4675W        W14155  12.075   8.010   2.291 -0.1427  0.0687 -0.1828
 4676W        W14156  12.981  12.110   8.418 -0.0722  0.1615 -0.0147
 4677W        W14157   1.180   0.181   6.952 -0.1149 -0.1984 -0.1280
 4678W        W14158   9.719  12.188   8.269 -0.1092 -0.2271 -0.0848
 4679W        W14159  14.986   9.311   0.554  0.0704  0.1849  0.0337
 4680W        W14160   0.326  14.959   7.834 -0.0137  0.2780  0.0082
 4681W        W14161   9.867  14.356   8.367  0.0675 -0.0178 -0.1862
 4682W        W14162   0.524   9.854   6.458  0.0206  0.1675 -0.1978
 4683W        W14163   2.087   8.963   8.197  0.1348  0.1006 -0.1522
 4684W        W14164   0.726  11.505   8.678  0.2121  0.2193  0.1133
 4685W        W14165   8.823  12.646   1.442  0.2022 -0.2079  0.3589
 4686W        W14166  14.634  13.559   1.432  0.1282 -0.0434 -0.1185
 4687W        W14167  10.258   4.055   1.278 -0.1891  0.1479 -0.0246
 4688W        W14168   7.514   3.668   1.802 -0.1016 -0.0233 -0.2482
 4689W        W14169  12.374   7.606   7.582 -0.2457 -0.0084  0.2878
 4690W        W14170   9.623  14.681   2.551  0.0433 -0.0414  0.2672
 4691W        W14171   2.037   5.023   7.796 -0.3944 -0.1723  0.0186
 4692W        W14172  12.893   8.724   6.568  0.1372  0.0637 -0.2213
 4693W        W14173   0.157   4.820   0.738  0.0873 -0.1427  0.4598
 4694W        W14174   0.883   7.223   0.972 -0.0028 -0.1359  0.1644
 4695W        W14175   7.823  11.414   1.518 -0.0513 -0.0721  0.1855
 4696W        W14176  14.632  10.135   0.749 -0.0353  0.1118  0.0757
 4697W        W14177  15.217   2.308   0.642  0.1720 -0.1738  0.1877
 4698W        W14178  11.221  15.017   7.811  0.2629  0.4106 -0.0840
 4699W        W14179  13.991  12.240   6.641  0.4418  0.2980  0.1208
 4700W        W14180  12.345  11.416   0.793  0.1158 -0.0951  0.1338
 4701W        W14181  14.312   8.324   0.250  0.0703 -0.0116 -0.0915
 4702W        W14182  14.252  10.866   8.878  0.2269 -0.0108  0.2024
 4703W        W14183   9.822  11.758   2.692  0.0180 -0.0263  0.4118
 4704W        W14184   9.717   9.260   0.143  0.1236 -0.4661  0.1366
 4705W        W14185  14.244  10.620   1.545 -0.2294  0.1107  0.2482
 4706W        W14186  13.306   9.941   1.035  0.1360  0.0148  0.0659
 4707W        W14187  10.717   8.097   1.067  0.1147 -0.2319 -0.0670
 4708W        W14188   7.265   7.058   6.828 -0.1063 -0.1503  0.0672
 4709W        W14189   8.769   8.030   8.961 -0.1912 -0.1412  0.1578
 4710W        W14190  12.658  12.034   6.936 -0.2242  0.1052  0.1752
 4711W        W14191   6.649  15.229   7.003 -0.3327 -0.2357  0.0237
 4712W        W14192  10.187  10.079   8.106  0.0110  0.1462 -0.0477
 4713W        W14193   4.601  15.126   7.761  0.0995 -0.0961  0.3391
 4714W        W14194   4.035   4.475   6.720 -0.2085  0.0055 -0.1666
 4715W        W14195   4.634   0.777   8.354 -0.0616  0.3206 -0.2838
 4716W        W14196   3.812   1.743   1.866  0.0267  0.1307  0.1685
 4717W        W14197  15.375   0.879   7.174  0.0033 -0.1028 -0.4730
 4718W        W14198   2.762   1.355   0.148 -0.1109  0.2271 -0.1285
 4719W        W14199   4.854  14.334   1.772  0.2105 -0.1842  0.1059
 4720W        W14200  15.439  14.679   8.035 -0.1408  0.0311  0.1199
 4721W        W14201  11.181  14.564   8.776  0.1736  0.1272 -0.0565
 4722W        W14202  14.229  13.209   1.501 -0.1505 -0.3069  0.1869
 4723W        W14203   0.486   8.092   1.061  0.1403  0.1970  0.0868
 4724W        W14204   4.327  14.533   1.088  0.0061 -0.0976  0.0184
 4725W        W14205   5.213  11.711   7.559  0.0110 -0.1741  0.2682
 4726W        W14206   1.370   1.572   7.299 -0.2937 -0.0176  0.5004
 4727W        W14207  13.446   1.782   9.040  0.1319  0.2338  0.2861
 4728W        W14208   2.814   2.173   0.362  0.1147  0.0702 -0.0211
 4729W        W14209   2.223   7.408   1.913  0.2396  0.0554  0.0544
 4730W        W14210  15.414  15.086   0.964  0.2070  0.0530 -0.1161
 4731W        W14211   1.136  14.689   7.973 -0.1561  0.1251  0.1465
 4732W        W14212   2.764  12.766   8.643  0.2403  0.0711  0.0699
 4733W        W14213  11.139  15.207   6.866  0.1138  0.0233 -0.1276
 4734W        W14214  10.241   0.505   7.976  0.1545  0.0990  0.2506
 4735W        W14215  12.477   4.030   1.250 -0.1800 -0.0073  0.0520
 4736W        W14216  12.992  15.308   1.315  0.2964  0.0693 -0.0798
 4737W        W14217  12.861   9.710   7.343 -0.2024  0.1581 -0.0192
 4738W        W14218   5.104  12.708   0.294  0.1342  0.0836 -0.2034
 4739W        W14219   0.615   1.025   8.181 -0.1237  0.0335 -0.0144
 4740W        W14220   3.481   3.271   6.530 -0.0471 -0.0440 -0.3257
 4741W        W14221  11.875   0.856   6.898  0.2110  0.0025  0.1627
 4742W        W14222   8.851  13.383   6.872  0.2311 -0.0422 -0.2501
 4743W        W14223   4.251  14.022   0.628  0.1374  0.2163  0.0584
 4744W        W14224   4.652   0.526   1.040 -0.1245  0.0189  0.1241
 4745W        W14225   0.692   1.004   2.202 -0.1638 -0.0373  0.1614
 4746W        W14226   1.399   2.704   8.545 -0.5268  0.4687  0.1689
 4747W        W14227  13.971  13.848   1.782 -0.2012 -0.1823 -0.1408
 4748W        W14228   1.504  14.084   2.264  0.0894  0.1572 -0.3328
 4749W        W14229   5.738   9.709   1.675  0.0386  0.0718 -0.2880
 4750W        W14230   8.062   1.006   2.801  0.4511 -0.1828 -0.0891
 4751W        W14231   3.487  13.395   0.230 -0.3950  0.2656 -0.0238
 4752W        W14232   3.423   0.832   7.796  0.0103  0.0519  0.0548
 4753W        W14233  13.499  11.735   1.420 -0.1247  0.2670 -0.0486
 4754W        W14234   5.279  11.512   8.546  0.1585  0.1459 -0.1553
 4755W        W14235   7.429   1.556   0.216  0.6951  0.0472 -0.1283
 4756W        W14236   1.009  14.166   8.241  0.0255 -0.0095  0.0004
 4757W        W14237   6.119   1.640   6.571  0.0632  0.0386 -0.1966
 4758W        W14238   4.511   2.389   1.839  0.0167  0.1980 -0.0241
 4759W        W14239  12.115   0.673   7.297 -0.2752 -0.0783 -0.1857
 4760W        W14240  15.227  14.073   0.101  0.2662  0.2999 -0.0885
 4761W        W14241  15.297   0.857   1.636  0.0188  0.0320 -0.0931
 4762W        W14242  12.988   1.684   8.050 -0.1397 -0.0997  0.0590
 4763W        W14243  14.039   0.099   0.496 -0.3525  0.3204 -0.4009
 4764W        W14244  14.984   1.260   7.565 -0.0624  0.3536  0.3027
 4765W        W14245   1.685   5.015   0.764 -0.0374  0.0496  0.1341
 4766W        W14246  15.180   0.396   0.657 -0.1302 -0.1332  0.1218
 4767W        W14247   3.348   2.068   0.118 -0.0988 -0.0293  0.1719
 4768W        W14248   0.065  11.997   7.352 -0.0431  0.2757  0.2717
 4769W        W14249   0.865  11.776   7.854  0.1143  0.1212  0.0592
 4770W        W14250   0.401  12.082   0.504  0.0357 -0.0361  0.3144
 4771W        W14251   0.663  13.871   8.029 -0.2915 -0.2277 -0.0769
 4772W        W14252   1.884   1.404   0.295 -0.1974 -0.1824  0.1360
 4773W        W14253   1.776  11.964   1.995 -0.4512  0.2821 -0.2391
 4774W        W14254   2.539   5.159   8.448  0.0747  0.1877  0.1092
 4775W        W14255   1.481   0.456   0.352  0.0920  0.3357  0.0935
 4776W        W14256   3.205  12.502   8.856 -0.2114 -0.2315 -0.0670
 4777W        W14257  10.422  13.718   7.390  0.0388 -0.1357  0.0214
 4778W        W14258  14.055   3.735   7.890 -0.0988 -0.0650  0.0809
 4779W        W14259   0.876   8.299   1.905 -0.2011  0.1005  0.2416
 4780W        W14260   5.421   6.731   0.799 -0.0458  0.1265 -0.3371
 4781W        W14261   1.246   0.302   1.585  0.4644  0.1030  0.0720
 4782W        W14262  13.802  14.781   8.092  0.1735 -0.3135 -0.4028
 4783W        W14263   4.259   2.805   7.404  0.2689  0.1110 -0.0296
 4784W        W14264   1.500  14.308   0.432  0.1434 -0.1133  0.2707
 4785W        W14265   4.415  13.394   7.877  0.0996  0.1232 -0.1821
 4786W        W14266   3.238   7.577   0.243  0.2740  0.2267 -0.2591
 4787W        W14267   4.411  11.241   0.475 -0.0952 -0.1745 -0.0383
 4788W        W14268   1.089   8.392   9.026  0.3477  0.0916  0.0962
 4789W        W14269  13.685   0.502   9.080 -0.0767  0.0653  0.1936
 4790W        W14270   6.248   0.955   1.124 -0.2961 -0.0180  0.1480
 4791W        W14271   4.479   8.780   2.056 -0.4105 -0.1234 -0.0112
 4792W        W14272   0.018  13.471   1.254  0.0755  0.2827 -0.0851
 4793W        W14273   4.852  14.118   0.338 -0.2164 -0.0817  0.3266
 4794W        W14274   2.528  12.341   8.201 -0.2331 -0.1661  0.2483
 4795W        W14275   8.026   2.759   1.010  0.1213 -0.1547 -0.2223
 4796W        W14276   9.060   0.078   0.454  0.0455  0.1636  0.1449
 4797W        W14277   1.522   0.091   9.061 -0.2060  0.1050 -0.0154
 4798W        W14278   2.245  14.686   8.399  0.2478 -0.1282  0.0163
 4799W        W14279   1.811   2.240   7.517 -0.1820 -0.0467  0.0821
 4800W        W14280   2.479   0.585   8.389  0.2464 -0.4791 -0.1738
 4801W        W14281   1.675  10.184   8.984 -0.1234 -0.1412  0.0522
 4802W        W14282   6.678   3.860   1.215 -0.3065 -0.1286  0.0327
 4803W        W14283  13.763  14.222   1.400 -0.3202  0.2228  0.1018
 4804W        W14284   2.153  10.222   8.812  0.3575  0.3270 -0.1485
 4805W        W14285   0.547   9.548   8.735 -0.0348  0.2840 -0.2557
 4806W        W14286   2.249  13.587   7.018  0.1685  0.1758  0.1957
 4807W        W14287   2.906   0.045   0.493  0.2035 -0.0775  0.2302
 4808W        W14288   1.749  13.591   6.126 -0.1808 -0.2780 -0.0251
 4809W        W14289   1.615   4.582   8.635  0.3778 -0.2663 -0.0583
 4810W        W14290  12.400  12.207   0.537  0.0781  0.1174  0.1517
 4811W        W14291   6.469  13.325   0.431  0.0710  0.2145  0.1116
 4812W        W14292   0.393  14.288   1.372  0.3047  0.0851  0.3101
 4813W        W14293   2.156  12.415   0.461 -0.1041 -0.1908 -0.0339
 4814W        W14294  13.029   2.483   7.977  0.0387  0.1853  0.2466
 4815W        W14295  13.008   0.996   1.218  0.2958 -0.1949  0.1123
 4816W        W14296   0.272   3.322   0.100 -0.2593  0.0702  0.0505
 4817W        W14297   5.714  11.507   0.137  0.2345  0.3874  0.0339
 4818W        W14298   1.237  14.385   6.560 -0.2982 -0.0793 -0.1657
 4819W        W14299   5.588   8.775   0.264  0.0396 -0.1806 -0.1137
 4820W        W14300   9.182   1.262   8.230 -0.2962  0.0654 -0.1547
 4821W        W14301   5.908   4.354   6.954 -0.1703 -0.1485 -0.0153
 4822W        W14302  12.453   0.256   8.067 -0.2015 -0.2002 -0.2798
 4823W        W14303  12.472   1.691   8.286 -0.1009 -0.2864 -0.0103
 4824W        W14304   7.409   0.511   1.212  0.2239  0.0822  0.1934
 4825W        W14305  14.620  15.107   7.680 -0.0110  0.1644  0.2557
 4826W        W14306  12.700  10.463   0.422 -0.4497  0.0060 -0.0005
 4827W        W14307   4.677  13.354   1.896  0.0794 -0.2865 -0.0590
 4828W        W14308   0.269  14.694   0.735 -0.2639 -0.0638  0.2743
 4829W        W14309  10.207  14.035   8.086 -0.0315  0.2901 -0.1689
 4830W        W14310   2.319  14.281   8.778 -0.2894 -0.2122 -0.0897
 4831W        W14311   5.286   1.682   8.655  0.1543 -0.0253  0.1113
 4832W        W14312   3.566   2.526   8.490 -0.0755  0.3522 -0.1373
 4833W        W14313   3.906  13.415   7.918  0.1382  0.2710 -0.2738
 4834W        W14314   4.696   4.573   8.966  0.1220  0.1965  0.1380
 4835W        W14315   8.116   0.191   6.930 -0.4214  0.0783  0.0444
 4836W        W14316   7.737   3.944   8.061  0.4333  0.1051 -0.0660
 4837W        W14317  14.931   7.203   8.588  0.1307  0.0382  0.1707
 4838W        W14318  15.226  15.273   1.869 -0.0446  0.2429  0.0615
 4839W        W14319  15.375  14.397   0.446 -0.0707  0.1840  0.0742
 4840W        W14320  14.737   1.260   0.344  0.2239  0.0728 -0.0987
 4841W        W14321   9.707   5.636   7.961 -0.0099  0.2221 -0.0436
 4842W        W14322   2.763  10.925   7.222 -0.1158  0.1700  0.1792
 4843W        W14323   9.999  11.663   7.446 -0.0626 -0.2292  0.2466
 4844W        W14324   0.858  14.810   1.412  0.4125 -0.0833  0.2087
 4845W        W14325   5.540  11.207   0.505 -0.1277 -0.0156 -0.2336
 4846W        W14326   5.686  13.643   7.503  0.3661 -0.0318 -0.0723
 4847W        W14327   5.853  14.086   2.141  0.0614 -0.0096  0.0924
 4848W        W14328   3.054  12.269   7.972 -0.0778 -0.3372 -0.4809
 4849W        W14329   4.002  11.498   2.626 -0.0085 -0.2656  0.0951
 4850W        W14330   1.275  13.842   6.878 -0.1238  0.2473 -0.5686
 4851W        W14331   5.380   9.117   8.053  0.1564  0.2309  0.0802
 4852W        W14332   4.226   2.946   7.859 -0.0976  0.1690 -0.0554
 4853W        W14333   3.047  14.685   2.231  0.0331 -0.0810 -0.0569
 4854W        W14334   5.845   0.471   7.336 -0.0032  0.0017 -0.2297
 4855W        W14335   8.701  13.476   0.806 -0.0006 -0.1646  0.0635
 4856W        W14336   6.295  14.907   1.123  0.0438  0.0626  0.1860
 4857W        W14337   3.771   5.929   1.139 -0.1733 -0.0823  0.1354
 4858W        W14338  10.166  14.367   2.979  0.1869  0.2626  0.0960
 4859W        W14339   9.050  11.829   7.820  0.2069  0.0178  0.1267
 4860W        W14340  12.608   1.213   8.040  0.1305 -0.1840  0.1273
 4861W        W14341   2.964   8.350   2.068 -0.1878 -0.1731 -0.0665
 4862W        W14342  14.981   9.960   1.067 -0.2246 -0.0055  0.0609
 4863W        W14343   5.307   9.493   2.333 -0.0626  0.0117  0.1557
 4864W        W14344   3.770   1.220   7.834  0.0706  0.1742  0.2661
 4865W        W14345   6.781   7.974   8.691 -0.0291 -0.1411 -0.0024
 4866W        W14346   1.680  15.254   7.543  0.3989  0.2970  0.2320
 4867W        W14347   7.035  12.330   8.589 -0.0511 -0.1356 -0.0677
 4868W        W14348   1.464   2.590   7.592  0.0730 -0.3061  0.1434
 4869W        W14349   5.734  13.394   6.989  0.2598 -0.1891 -0.1357
 4870W        W14350   1.731   1.743   7.542  0.4547 -0.2092  0.1643
 4871W        W14351  10.048   4.353   6.849  0.3072  0.0920  0.0670
 4872W        W14352   8.589   9.326   7.369 -0.1562  0.1008 -0.0694
 4873W        W14353   5.892  13.200   1.740 -0.3105 -0.2007 -0.1009
 4874W        W14354   9.222  10.119   1.618 -0.0415  0.0453 -0.2326
 4875W        W14355  10.632  14.069   7.723 -0.2345 -0.1992 -0.0265
 4876W        W14356   4.718  13.199   0.957 -0.0938  0.2813 -0.4385
 4877W        W14357   9.429   9.987   2.079 -0.0945  0.2341 -0.0603
 4878W        W14358  13.788   2.523   1.932 -0.0037 -0.0792  0.1881
 4879W        W14359   7.070  11.814   0.798 -0.0366 -0.0311  0.1075
 4880W        W14360   1.489  13.548   0.016  0.1167  0.1453 -0.3503
 4881W        W14361   8.320  15.442   0.246 -0.3110  0.3125 -0.1502
 4882W        W14362   7.878  13.701   7.338 -0.0183 -0.2809 -0.0059
 4883W        W14363   2.915  12.733   6.950 -0.0493 -0.2549 -0.1338
 4884W        W14364   1.854  12.642   0.813 -0.1960 -0.2612  0.0198
 4885W        W14365   8.657  10.530   1.109 -0.0462  0.2838  0.0070
 4886W        W14366   5.446  12.565   1.294  0.2972 -0.0061 -0.0604
 4887W        W14367   1.287   0.495   0.976 -0.0522  0.2414  0.3437
 4888W        W14368   7.614   6.681   0.162 -0.0484  0.0353 -0.0474
 4889W        W14369   6.048   2.149   2.184 -0.1790  0.2681 -0.1682
 4890W        W14370   5.260  13.787   8.716 -0.2017  0.0571  0.0183
 4891W        W14371   6.782  10.796   8.882 -0.0759  0.0054  0.0023
 4892W        W14372   7.313   1.006   1.407  0.1658  0.2486  0.1321
 4893W        W14373  11.954  15.371   1.121  0.0261 -0.0599  0.0659
 4894W        W14374   9.380   8.898   7.527  0.3317  0.1321  0.0385
 4895W        W14375  10.325  13.819   1.173  0.0633 -0.2175  0.2915
 4896W        W14376   3.528  10.227   8.827  0.2099 -0.1367  0.0306
 4897W        W14377   4.487   0.725   7.879  0.3267  0.0498  0.0457
 4898W        W14378   3.887  13.802   7.314  0.2812 -0.0633  0.0169
 4899W        W14379   3.446  14.121   7.337 -0.3334 -0.0526  0.0731
 4900W        W14380   4.521   2.599   8.458 -0.1267 -0.0393 -0.1819
 4901W        W14381   0.984   0.233   1.989  0.1990 -0.1632 -0.4178
 4902W        W14382   5.712   0.094   8.617 -0.0509 -0.0149  0.1081
 4903W        W14383   6.668  12.746   1.993 -0.3646  0.1402  0.1586
 4904W        W14384   2.037  14.368   0.082  0.2074 -0.1012 -0.0692
 4905W        W14385  14.661  14.544   1.481  0.1084 -0.0658 -0.1979
 4906W        W14386  11.600   1.209   8.218  0.1762  0.0056  0.0687
 4907W        W14387   3.895   1.256   9.065  0.0931 -0.1967 -0.2874
 4908W        W14388   1.985   1.053   2.256  0.0550 -0.1828  0.0368
 4909W        W14389  10.663  14.759   8.627 -0.2016  0.1603  0.0104
 4910W        W14390   7.533  11.661   0.139 -0.3428 -0.1135  0.1263
 4911W        W14391   0.654   0.640   7.844 -0.2340 -0.0567  0.1362
 4912W        W14392  11.800  14.979   0.375  0.1433  0.2378  0.1587
 4913W        W14393  12.815  10.576   7.079 -0.0091  0.1104  0.1652
 4914W        W14394   7.212  14.559   0.402 -0.0970 -0.3701  0.0069
 4915W        W14395   2.705  13.095   3.045 -0.2914  0.1555 -0.1023
 4916W        W14396   0.580   0.286   6.962  0.0799  0.1815  0.1573
 4917W        W14397  12.794  11.999   1.339 -0.2305  0.0678  0.1287
 4918W        W14398   2.181  11.087   0.175 -0.0156  0.1754  0.0908
 4919W        W14399   5.169   0.412   0.590 -0.0154 -0.1696 -0.2464
 4920W        W14400   5.649  11.140   8.308  0.0615 -0.1463 -0.0484
 4921W        W14401   0.566  12.779   0.448 -0.2584 -0.0945 -0.0792
 4922W        W14402   4.719  13.434   7.514 -0.1385 -0.2024 -0.0635
 4923W        W14403   8.207  14.922   8.523  0.4182  0.0297  0.0120
 4924W        W14404   7.002   8.508   8.595 -0.1447 -0.1653 -0.1781
 4925W        W14405   7.904   0.644   6.636  0.1562 -0.2657  0.3071
 4926W        W14406   8.352  11.439   2.194  0.0749 -0.0272  0.1217
 4927W        W14407   6.401   1.266   8.408 -0.0613  0.0796  0.1548
 4928W        W14408  10.029   7.026   8.866 -0.1890 -0.1963  0.0687
 4929W        W14409   4.968   2.352   1.023 -0.1026  0.0082 -0.0011
 4930W        W14410   1.794   0.822   0.481 -0.1264  0.0139  0.0886
 4931W        W14411  11.769  10.919   8.208 -0.2392  0.0299  0.5760
 4932W        W14412   3.567   0.448   0.151  0.2150 -0.1000 -0.0178
 4933W        W14413   2.243  12.952   7.068  0.1474  0.0692  0.0622
 4934W        W14414   6.931   1.966   1.315  0.0567  0.0200 -0.0365
 4935W        W14415   1.974   6.464   8.034 -0.1731 -0.0792  0.0516
 4936W        W14416   5.095   1.770   1.090 -0.0844 -0.2345  0.3821
 4937W        W14417  10.821   1.563   8.324  0.1040 -0.0577  0.0134
 4938W        W14418   1.709  14.777   0.274  0.0127  0.4591  0.1468
 4939W        W14419   5.601  12.293   7.810 -0.5347  0.1017 -0.3074
 4940W        W14420   0.361  12.949   1.232  0.0024 -0.0498  0.2327
 4941W        W14421   3.258   9.201   2.015  0.0951 -0.1451  0.0539
 4942W        W14422   3.146   1.239   8.647  0.0809  0.3592  0.3825
 4943W        W14423   4.543   3.529   7.980  0.2179  0.0553 -0.0761
 4944W        W14424   6.817  15.159   7.486 -0.1370  0.0240 -0.0616
 4945W        W14425   8.098   0.034   0.876 -0.1626 -0.1829 -0.4004
 4946W        W14426  11.361   9.660   0.120  0.1157  0.0716 -0.2527
 4947W        W14427   2.906  10.869   8.595 -0.2452 -0.0561  0.0218
 4948W        W14428  14.614   0.256   8.514 -0.1622 -0.2917  0.0488
 4949W        W14429   3.088   9.960   7.262 -0.1492 -0.1095  0.1578
 4950W        W14430   5.514   9.840   8.783  0.1770 -0.1620 -0.0078
 4951W        W14431   8.781  13.739   0.312 -0.0315 -0.1299  0.1024
 4952W        W14432  13.776  14.377   8.451 -0.4114  0.1490 -0.1865
 4953W        W14433  15.390  13.770   1.773 -0.1266 -0.1474 -0.1476
 4954W        W14434  12.257  15.377   1.597  0.1162 -0.0190 -0.1312
 4955W        W14435   7.040   2.248   1.767  0.0704 -0.0972 -0.0650
 4956W        W14436  10.675   2.662   7.784 -0.1910  0.1327  0.2378
 4957W        W14437   2.269  12.600   8.671  0.2471  0.3093 -0.1104
 4958W        W14438   5.512  15.178   1.269 -0.2568 -0.2643  0.0850
 4959W        W14439   7.113   9.094   8.545 -0.2562  0.1601  0.0871
 4960W        W14440  11.570  14.989   0.864  0.1233  0.0073 -0.0521
 4961W        W14441   2.892  11.956   1.188 -0.2307  0.2280  0.0175
 4962W        W14442  11.504  15.237   1.336 -0.1162 -0.1399  0.2284
 4963W        W14443   8.846  12.136   8.494 -0.0280 -0.4156  0.0722
 4964W        W14444   6.019  14.567   1.610 -0.2857  0.0313 -0.0079
 4965W        W14445   4.974  14.695   8.632  0.0371 -0.1415 -0.0031
 4966W        W14446   2.504  12.556   1.832  0.0094 -0.1508  0.0857
 4967W        W14447   7.077   4.499   1.491 -0.0675  0.2561  0.1979
 4968W        W14448  11.664  14.372   0.955 -0.0307 -0.2579 -0.0751
 4969W        W14449   3.995  12.127   2.069 -0.0660 -0.0086  0.1242
 4970W        W14450   7.204   2.810   6.660  0.0276  0.0816  0.0321
 4971W        W14451   7.251  12.825   8.614 -0.1103 -0.0930 -0.0213
 4972W        W14452   9.425  15.049   0.311  0.0555 -0.1912 -0.0108
 4973W        W14453   7.862  11.008   8.276  0.2956  0.0490  0.0176
 4974W        W14454   5.355  14.594   7.513  0.1716  0.0382 -0.2062
 4975W        W14455  10.979   2.819   0.996 -0.2834  0.0551 -0.1407
 4976W        W14456   8.647   1.343   9.095 -0.1494 -0.1615  0.0436
 4977W        W14457   9.211   1.470   6.430  0.2021 -0.0716 -0.3539
 4978W        W14458   1.325  10.008   8.349  0.1822 -0.0174  0.0244
 4979W        W14459  11.634  13.142   2.947  0.2123 -0.3029  0.3204
 4980W        W14460   9.344  14.455   0.128 -0.0099 -0.3611 -0.1854
 4981W        W14461   6.486   1.956   2.165  0.0261 -0.0728 -0.1474
 4982W        W14462  10.994  12.872   1.810  0.2988 -0.1436 -0.0566
 4983W        W14463   1.804  11.815   7.091  0.0839  0.1444 -0.0644
 4984W        W14464   6.959   0.098   8.854 -0.3220 -0.1061  0.1029
 4985W        W14465   1.624   2.282   8.475 -0.0282  0.1206 -0.0975
 4986W        W14466   5.610   0.550   8.434 -0.1477  0.0001  0.2673
 4987W        W14467  12.774  14.638   0.251 -0.0991  0.0996  0.0909
 4988W        W14468   6.655   1.097   0.826  0.1357  0.1706 -0.1894
 4989W        W14469   3.505  10.016   8.143 -0.1439  0.0755  0.1022
 4990W        W14470   5.803   3.832   8.343 -0.0029 -0.1815 -0.2416
 4991W        W14471  10.142   2.359   2.454  0.2908 -0.0448  0.1578
 4992W        W14472  10.911   0.421   0.448 -0.0544 -0.1213 -0.0475
 4993W        W14473   0.925   2.707   7.131 -0.0306  0.1808  0.1693
 4994W        W14474  10.504   1.188   2.638  0.3372 -0.2317 -0.1790
 4995W        W14475   6.426  11.743   1.411 -0.0602  0.4405  0.0044
 4996W        W14476  10.876  14.919   1.927  0.0004 -0.1884 -0.3011
 4997W        W14477  10.363   3.332   1.699  0.2239  0.2045 -0.1847
 4998W        W14478   9.660   1.316   1.470 -0.2934  0.2974 -0.1709
 4999W        W14479   6.944  10.705   7.768  0.1346  0.2207 -0.2015
 5000W        W14480   8.354   3.566   6.495 -0.0658  0.0243 -0.4355
 5001W        W14481   8.063   1.283   0.913 -0.0285 -0.1962 -0.1736
 5002W        W14482   1.761  10.763   2.532 -0.3075  0.1014  0.0534
 5003W        W14483   7.399   2.113   1.364  0.4979 -0.0366  0.2037
 5004W        W14484   9.602  11.777   7.780 -0.4659 -0.1760 -0.2176
 5005W        W14485   9.903  13.039   1.656 -0.1196 -0.0381 -0.0536
 5006W        W14486   9.496   3.175   6.205  0.0213 -0.0672 -0.3578
 5007W        W14487   8.547  10.038   8.517  0.2945 -0.3922 -0.0259
 5008W        W14488   3.816  15.096   8.426 -0.0633  0.4528  0.3504
 5009W        W14489  10.890  10.948   8.209 -0.0074  0.0299 -0.0099
 5010W        W14490  13.376   0.389   1.827 -0.1477 -0.3438 -0.4793
 5011W        W14491  10.285  14.724   7.063 -0.3239  0.3357  0.1655
 5012W        W14492   7.868  11.499   6.929  0.3655  0.0081  0.1477
 5013W        W14493   7.609  14.474   2.128 -0.1446  0.1320 -0.0270
 5014W        W14494   4.623  12.909   2.133 -0.0793  0.2928 -0.1266
 5015W        W14495  11.705  15.431   0.661  0.3125  0.1272  0.0252
 5016W        W14496   7.654   2.518   6.822 -0.1268  0.2707 -0.0317
 5017W        W14497   6.571  14.014   8.414  0.2197  0.0743 -0.0228
 5018W        W14498   8.630   1.141   1.304 -0.0208  0.1417  0.0374
 5019W        W14499  12.956  10.116   7.981  0.2757 -0.1967 -0.3622
 5020W        W14500  11.623   2.523   8.695  0.0818  0.2890  0.2467
 5021W        W14501   7.031   2.471   8.461 -0.1402 -0.1442 -0.1431
 5022W        W14502   5.686  12.879   6.935 -0.4171 -0.0079  0.1435
 5023W        W14503  12.423   0.438   9.063 -0.2428  0.1596  0.0308
 5024W        W14504  10.701   8.004   6.815  0.2272 -0.1711 -0.2150
 5025W        W14505   3.616  13.868   0.158  0.0483  0.1438 -0.0492
 5026W        W14506   7.651   0.347   0.114 -0.0182 -0.0901  0.1391
 5027W        W14507  11.993  15.329   6.809  0.3736 -0.0214 -0.0140
 5028W        W14508   5.878  15.442   0.402 -0.0669 -0.0084  0.0940
 5029W        W14509   4.481  14.112   2.143  0.0891 -0.0311 -0.2122
 5030W        W14510   5.451  13.042   2.699 -0.1570  0.2624  0.1978
 5031W        W14511  12.259  14.454   1.813  0.0122  0.2071 -0.1569
 5032W        W14512  10.637  15.048   0.247  0.0249 -0.2960  0.2361
 5033W        W14513   7.872  14.043   0.699 -0.1372  0.1642  0.0943
 5034W        W14514   3.606   2.542   1.541 -0.0725 -0.2236 -0.1898
 5035W        W14515  10.006  11.829   1.896  0.1179 -0.2356  0.1288
 5036W        W14516  11.507  10.111   7.769  0.0826  0.1116 -0.3147
 5037W        W14517   8.652   1.911   0.331  0.0682  0.0513  0.0882
 5038W        W14518  11.743  12.714   0.749 -0.3893  0.3814  0.0493
 5039W        W14519  12.500  11.634   0.361  0.2877 -0.4302  0.2999
 5040W        W14520  11.072   0.727   7.323  0.1079  0.2048 -0.2312
 5041W        W14521   4.464   7.422   8.381 -0.5391 -0.0915 -0.2694
 5042W        W14522   3.360  15.193   8.692  0.0155 -0.1301  0.3722
 5043W        W14523  10.188   3.229   2.556  0.3841  0.0377  0.1200
 5044W        W14524   5.181  11.032   7.522 -0.1050  0.0763  0.1979
 5045W        W14525  14.596   7.605   2.118 -0.0227  0.3227 -0.0607
 5046W        W14526   5.571  14.791   1.644 -0.1209  0.1413  0.0185
 5047W        W14527   4.823  13.908   8.978 -0.1010 -0.1964  0.0603
 5048W        W14528   9.495   2.698   7.106 -0.1218 -0.1525  0.0804
 5049W        W14529   5.293   1.830   0.540 -0.2464 -0.0797  0.0065
 5050W        W14530   4.209  13.649   1.936 -0.0684  0.1090  0.1892
 5051W        W14531   5.777  11.910   7.458  0.1477 -0.2692 -0.0899
 5052W        W14532   8.886  12.649   8.935 -0.2592 -0.0566 -0.0686
 5053W        W14533   7.205  14.449   1.283 -0.1290 -0.2271  0.1180
 5054W        W14534   6.417  12.698   0.448  0.0480  0.1104 -0.1077
 5055W        W14535   7.241  11.415   1.402 -0.0177 -0.1748 -0.1751
 5056W        W14536   8.771  12.837   7.971  0.1474 -0.0311  0.0066
 5057W        W14537   5.911  15.355   7.333  0.4573  0.1962  0.0848
 5058W        W14538   5.032  15.207   7.423 -0.0679 -0.0653  0.2576
 5059W        W14539   7.006  12.283   8.111 -0.0430 -0.2830 -0.1053
 5060W        W14540   1.714   9.844   0.330  0.1165 -0.1291 -0.0515
 5061W        W14541   7.416  15.187   8.111  0.0964  0.0514  0.1264
 5062W        W14542  12.421   2.626   0.829 -0.0072 -0.3283  0.0841
 5063W        W14543   8.439   0.193   8.744  0.1616  0.0956  0.1809
 5064W        W14544  15.320  10.922   0.462 -0.1043  0.2319  0.1403
 5065W        W14545  12.294  13.679   7.741 -0.0153  0.4107 -0.0425
 5066W        W14546   4.082  13.815   9.046 -0.0112  0.1036 -0.2117
 5067W        W14547  11.823  13.537   8.212 -0.0677 -0.1047  0.0450
 5068W        W14548   9.335   3.626   6.042  0.0305  0.1925  0.2014
 5069W        W14549  13.168   1.462   1.272  0.2545 -0.0055 -0.3061
 5070W        W14550  10.732  14.541   9.093  0.1966 -0.3811  0.0261
 5071W        W14551  10.144   0.688   6.966  0.1936 -0.2734  0.0849
 5072W        W14552  13.031   3.238   6.985 -0.0156 -0.0427 -0.1121
 5073W        W14553  14.794   3.110   7.740  0.1719 -0.0085 -0.1864
 5074W        W14554   8.330  12.061   6.430  0.3597 -0.1345 -0.1856
 5075W        W14555   6.228  10.487   6.666  0.2788  0.2261 -0.1185
 5076W        W14556  11.878  12.890   6.890  0.0270 -0.0495  0.1248
 5077W        W14557  13.363   4.350   8.087 -0.2400  0.0511  0.0131
 5078W        W14558  11.351  12.487   0.982  0.2301  0.0718  0.1278
 5079W        W14559   6.404   9.605   8.077 -0.0521  0.0070 -0.4297
 5080W        W14560   0.023  12.893   7.211 -0.0986  0.1233 -0.0146
 5081W        W14561  13.421  11.252   1.311  0.0621  0.1609  0.2210
 5082W        W14562   8.384  13.391   8.690  0.0400 -0.2899 -0.1227
 5083W        W14563  10.729   7.254   7.665 -0.1563  0.1029 -0.3054
 5084W        W14564  10.106   2.827   0.327 -0.1468  0.0770  0.1341
 5085W        W14565  10.888  12.765   8.794  0.2535  0.0004  0.0048
 5086W        W14566   9.580  13.261   1.226 -0.2793 -0.0475  0.2429
 5087W        W14567   0.074   7.830   0.989 -0.1126 -0.3956 -0.1445
 5088W        W14568   9.199  12.019   7.393 -0.1347  0.2435 -0.4992
 5089W        W14569   6.119  12.262   2.040 -0.0623 -0.2777 -0.0134
 5090W        W14570  12.399   0.838   8.695  0.2342 -0.0064 -0.0725
 5091W        W14571   4.650  10.042   8.656  0.4548  0.1335  0.2374
 5092W        W14572   1.401   1.127   7.490  0.3050  0.1162  0.1755
 5093W        W14573   0.426   0.654   8.461 -0.0588  0.4730 -0.1365
 5094W        W14574  10.907  13.828   0.914 -0.1943  0.0956 -0.0603
 5095W        W14575   5.498  13.082   7.338  0.1643  0.1036  0.0249
 5096W        W14576  10.497   0.398   8.379  0.0326 -0.0157  0.2203
 5097W        W14577   9.797   9.707   7.866  0.1990 -0.0192 -0.1033
 5098W        W14578   5.774   1.942   1.776  0.1057 -0.0526 -0.0785
 5099W        W14579  12.358  12.183   8.408  0.0047  0.3786  0.3971
 5100W        W14580   9.401  11.695   1.998 -0.0681  0.0509  0.0330
 5101W        W14581  14.902  15.074   2.165  0.0485 -0.0190 -0.0224
 5102W        W14582   0.534   0.565   1.992 -0.0192 -0.0142 -0.3854
 5103W        W14583   9.891  14.809   0.588 -0.2176  0.3783 -0.0612
 5104W        W14584   8.838   2.081   8.650 -0.0684  0.0488 -0.0205
 5105W        W14585  12.074  11.823   1.471  0.0985  0.2899  0.2479
 5106W        W14586  12.447   5.196   0.169 -0.2017 -0.1479  0.1217
 5107W        W14587  11.226  15.408   0.860  0.0384  0.2321 -0.0429
 5108W        W14588  15.390  14.110   7.056 -0.0315  0.0729 -0.0946
 5109W        W14589   9.526  12.660   8.453 -0.0706 -0.2548 -0.2240
 5110W        W14590   6.865   2.275   2.280 -0.0814  0.0414  0.1074
 5111W        W14591  12.520   3.311   6.348 -0.1465 -0.2370  0.1771
 5112W        W14592  15.428   3.806   1.222  0.0045 -0.0183 -0.1097
 5113W        W14593  10.096   0.571   2.334  0.0594 -0.0141  0.2455
 5114W        W14594  10.620  13.048   1.494  0.0720  0.3080 -0.4134
 5115W        W14595  11.556   7.423   7.078  0.1542 -0.2293 -0.1788
 5116W        W14596   5.891  14.560   8.432  0.2467  0.1883 -0.1814
 5117W        W14597   5.302  13.242   7.839 -0.4042 -0.2516  0.0628
 5118W        W14598  12.121  12.108   1.010 -0.0753 -0.2256  0.0408
 5119W        W14599  12.815   9.048   1.453 -0.1063  0.1371  0.1250
 5120W        W14600   6.662  11.370   6.557  0.1857 -0.3049 -0.2709
 5121W        W14601  14.048   2.281   8.437  0.0721  0.0869  0.0104
 5122W        W14602  11.988  13.658   0.080  0.1784 -0.0177  0.1780
 5123W        W14603   7.831   3.141   0.315 -0.0130 -0.1198 -0.1158
 5124W        W14604   0.940   0.169   7.893  0.0571  0.0591 -0.0329
 5125W        W14605  10.097   6.626   0.204 -0.2068 -0.1800 -0.1397
 5126W        W14606   2.629  14.554   9.065  0.0699 -0.1041  0.2898
 5127W        W14607  14.876  12.774   8.799 -0.1011 -0.0211 -0.4982
 5128W        W14608   4.818   2.718   1.320 -0.0723  0.2278  0.0416
 5129W        W14609   6.900  12.563   1.125 -0.0785  0.2714 -0.0705
 5130W        W14610  10.504   1.181   1.315 -0.1518  0.0057 -0.2914
 5131W        W14611   8.478  11.721   7.726  0.2119 -0.1277  0.0329
 5132W        W14612  12.490  15.215   7.951  0.1458  0.3660  0.1597
 5133W        W14613   9.839  14.893   7.075  0.0870 -0.2304  0.2296
 5134W        W14614  15.176   2.433   1.590  0.0515 -0.1242  0.0137
 5135W        W14615  10.394  12.440   7.692  0.1108 -0.4975 -0.3923
 5136W        W14616  12.057   3.899   6.512 -0.1338  0.1927  0.0322
 5137W        W14617  13.766  12.365   1.746  0.0002 -0.1461 -0.1976
 5138W        W14618   9.957  13.005   7.212  0.1057 -0.2954  0.0774
 5139W        W14619   2.776   0.859   7.234  0.0442 -0.0418 -0.4714
 5140W        W14620  14.192  12.174   8.679 -0.2673  0.0581 -0.3623
 5141W        W14621  13.204  11.347   8.686  0.2532 -0.2206  0.0530
 5142W        W14622  10.336   7.592   7.513  0.0665  0.1072  0.0095
 5143W        W14623   5.242   2.194   1.499 -0.1900 -0.3830 -0.0072
 5144W        W14624  11.513   0.239   1.106  0.1114 -0.0293 -0.0177
 5145W        W14625  15.084  13.845   7.893  0.1985  0.1002  0.1642
 5146W        W14626   0.583  14.729   2.249 -0.1916  0.2453 -0.1471
 5147W        W14627  13.380   0.134   0.265 -0.1673 -0.2765  0.3505
 5148W        W14628   1.951   0.387   6.631  0.0201  0.3227 -0.0015
 5149W        W14629  11.207  10.901   1.979 -0.0481  0.1718  0.2873
 5150W        W14630  12.356  10.448   6.846  0.1115  0.1119 -0.0721
 5151W        W14631  14.593   1.008   7.575  0.2571  0.2344  0.1425
 5152W        W14632   6.125  10.181   8.097 -0.4047 -0.3936  0.2331
 5153W        W14633  10.574  14.874   1.559  0.1151 -0.1699 -0.2063
 5154W        W14634   9.108   0.564   0.478  0.0646 -0.0036  0.1663
 5155W        W14635  13.354   5.722   2.374 -0.2574  0.0073  0.3119
 5156W        W14636  14.800   0.817   1.763 -0.0154  0.0389  0.0543
 5157W        W14637   0.389  13.090   2.152  0.0164 -0.0850  0.0084
 5158W        W14638  13.766  11.390   0.938 -0.1735 -0.3244 -0.2111
 5159W        W14639  11.937  12.838   8.531 -0.2582  0.1535 -0.1501
 5160W        W14640  10.540  11.050   0.619  0.1100  0.0619 -0.0662
 5161W        W14641  13.331  13.862   0.047  0.2478 -0.4335 -0.1583
 5162W        W14642  12.672  11.251   8.623 -0.1385  0.1044  0.1044
 5163W        W14643  12.943  10.624   1.729  0.1762 -0.0516 -0.2676
 5164W        W14644   9.199   7.794   1.567 -0.1212  0.0388  0.3988
 5165W        W14645  14.578   1.583   1.317  0.0113 -0.1899 -0.0364
 5166W        W14646  11.296  13.436   1.072  0.2561  0.1115 -0.0145
 5167W        W14647   9.896  14.847   7.858 -0.1777  0.0660  0.0199
 5168W        W14648  14.584   2.249   2.392  0.1555 -0.1424  0.2230
 5169W        W14649   9.048  12.916   7.001 -0.0279 -0.0774  0.2692
 5170W        W14650  13.483  13.405   8.312 -0.0992  0.0665  0.2558
 5171W        W14651  10.354  13.474   6.490 -0.2057  0.0220 -0.0799
 5172W        W14652   1.021  11.037   0.885 -0.0333 -0.1592  0.1059
 5173W        W14653  13.160  14.242   8.359  0.0208  0.0191 -0.3543
 5174W        W14654   9.497  14.520   0.626 -0.1548  0.2649 -0.0697
 5175W        W14655  14.003  10.864   0.616 -0.1592  0.2888  0.1468
 5176W        W14656  13.982  14.158   0.895 -0.0046  0.2450  0.3252
 5177W        W14657  11.633  13.335   6.937  0.1645 -0.2289  0.1150
 5178W        W14658  10.543   9.919   2.735 -0.1075 -0.1035 -0.1259
 5179W        W14659  11.986  14.502   8.089  0.0497  0.1466 -0.2098
 5180W        W14660  12.238   9.329   0.078 -0.1055 -0.4398  0.4715
 5181W        W14661   2.462   3.536   8.635 -0.1158  0.0528  0.1863
 5182W        W14662  10.188   4.640   1.534  0.0307  0.2433 -0.1442
 5183W        W14663  14.425   7.404   6.378 -0.0708 -0.3078 -0.2034
 5184W        W14664  12.756   6.890   1.887 -0.2806  0.1811  0.0417
 5185W        W14665   0.128  12.661   0.378  0.2190 -0.2771 -0.2004
 5186W        W14666   7.404   8.672   1.557  0.1341 -0.0479  0.0888
 5187W        W14667   3.101  12.002   8.793 -0.0248  0.3498  0.1052
 5188W        W14668  10.388  12.631   7.166  0.0469 -0.2191 -0.0024
 5189W        W14669  14.283   5.439   1.259  0.0408  0.0056  0.2880
 5190W        W14670  12.728  14.385   1.558  0.2169  0.1369  0.2343
 5191W        W14671   1.675   2.947   1.712 -0.6614 -0.0497 -0.0946
 5192W        W14672  13.744   7.766   8.461 -0.3302 -0.0624 -0.2417
 5193W        W14673  13.493   2.158   7.663  0.1122  0.3068  0.0420
 5194W        W14674  15.223  12.789   6.786 -0.1322 -0.2003  0.0065
 5195W        W14675   0.643  15.329   2.153 -0.0038  0.0812  0.0104
 5196W        W14676  14.208  15.297   1.788  0.2371  0.0074 -0.0682
 5197W        W14677   0.185  12.424   8.701  0.1392 -0.1128  0.0650
 5198W        W14678   3.167  12.773   8.195 -0.0116 -0.1897  0.0595
 5199W        W14679   0.651   3.048   7.452 -0.4260 -0.1517 -0.0530
 5200W        W14680   8.208  10.889   0.799  0.2937 -0.2218 -0.1950
 5201W        W14681   4.575  11.153   0.019  0.0307 -0.0150  0.1223
 5202W        W14682  12.102  12.386   8.796 -0.0570  0.0980  0.0824
 5203W        W14683  12.578  15.192   0.238  0.2498  0.0169 -0.0732
 5204W        W14684   3.157  14.531   6.581  0.1221 -0.3774  0.2920
 5205W        W14685   0.613   3.709   8.045  0.0553  0.0981 -0.3819
 5206W        W14686  10.626   1.532   1.600  0.1229  0.2533  0.0306
 5207W        W14687  14.853  11.260   7.400 -0.0991  0.2531  0.1546
 5208W        W14688   2.124   3.417   8.274 -0.1888 -0.1228  0.0986
 5209W        W14689   1.269  11.079   1.352 -0.1080  0.1929  0.1492
 5210W        W14690   0.366  11.584   6.841  0.1943  0.0546 -0.1993
 5211W        W14691  14.667  14.693   8.948  0.1793  0.0846  0.0324
 5212W        W14692   1.205  13.664   8.184  0.1770 -0.2757  0.2295
 5213W        W14693   3.832   9.399   8.931  0.0755  0.0271  0.0624
 5214W        W14694  14.401   5.679   7.323  0.1716  0.0214 -0.3506
 5215W        W14695   5.945  13.846   7.116  0.0760  0.0940 -0.0633
 5216W        W14696  15.408   4.124   1.649  0.1001 -0.2206  0.0089
 5217W        W14697  11.762  15.394   8.803 -0.2646 -0.0980  0.2095
 5218W        W14698  13.133  12.075   6.849 -0.1874  0.2696  0.1643
 5219W        W14699   3.156   0.504   0.409  0.2075  0.0340 -0.0760
 5220W        W14700  15.236  14.058   6.480 -0.1887  0.0435  0.1405
 5221W        W14701  14.593  12.398   7.236  0.5597 -0.1090  0.0685
 5222W        W14702  13.752  12.241   1.205 -0.1044 -0.1356  0.1871
 5223W        W14703   0.216   8.068   2.276  0.0287 -0.2179  0.1159
 5224W        W14704  14.563  13.317   0.969 -0.1356 -0.1405 -0.4306
 5225W        W14705   1.990   0.997   9.007  0.0957 -0.1551  0.0633
 5226W        W14706  15.407  11.461   2.595  0.1129 -0.0454  0.0119
 5227W        W14707  15.272   1.781   2.864  0.0806  0.1318  0.2519
 5228W        W14708  10.939   9.403   0.872 -0.2276  0.1869 -0.0192
 5229W        W14709   2.172   9.451   6.764  0.3408  0.2526  0.1737
 5230W        W14710   3.588  15.312   7.213  0.0346  0.0028 -0.3274
 5231W        W14711   3.898   0.133   8.450 -0.2710 -0.0279  0.0982
 5232W        W14712  12.942  14.028   2.085  0.0990  0.2542  0.1229
 5233W        W14713  10.920   0.453   2.413 -0.2939  0.4123 -0.1644
 5234W        W14714  13.601   2.395   7.133  0.2668 -0.2798 -0.1097
 5235W        W14715   3.515   8.107   6.669  0.0732  0.1199 -0.1309
 5236W        W14716  14.652   0.067   2.219 -0.0985 -0.1200  0.0602
 5237W        W14717   2.507  11.452   8.049  0.5370 -0.1513 -0.0741
 5238W        W14718  13.431  14.515   7.467  0.3010 -0.0532  0.2866
 5239W        W14719  14.642   1.705   1.795  0.0997 -0.0903 -0.1576
 5240W        W14720   9.134   0.426   1.339  0.0890  0.2868 -0.0407
 5241W        W14721   0.445  14.949   1.184  0.1193 -0.0521  0.1551
 5242W        W14722  14.236  11.825   6.424  0.2577  0.1524 -0.3239
 5243W        W14723   0.623  15.420   8.943  0.0732  0.1447  0.0132
 5244W        W14724  14.919  14.118   0.523 -0.1846 -0.0757 -0.0477
 5245W        W14725  13.295  10.395   0.926  0.0332  0.0155 -0.1603
 5246W        W14726  15.367  11.162   8.284 -0.1854  0.1753  0.0240
 5247W        W14727  10.818   0.295   2.856  0.0884 -0.1465  0.2413
 5248W        W14728  11.464   0.306   8.523  0.0776  0.1026  0.1813
 5249W        W14729   3.271   0.377   2.146 -0.1711  0.1774  0.2466
 5250W        W14730   3.704   7.654   6.599 -0.6001 -0.0325  0.1767
 5251W        W14731  15.144   2.750   7.764  0.0142 -0.0722  0.0684
 5252W        W14732   5.975   3.623   0.204 -0.3742  0.0688  0.2678
 5253W        W14733   6.397   0.629   2.435 -0.1496  0.0454  0.2350
 5254W        W14734   5.553   3.044   1.838 -0.0461 -0.2771  0.0880
 5255W        W14735   7.969   1.536   7.690 -0.2608  0.1237  0.2949
 5256W        W14736   2.295   1.051   7.212  0.0631 -0.5106 -0.1906
 5257W        W14737   7.597   5.406   8.708 -0.0570  0.0898 -0.0392
 5258W        W14738   1.194   0.129   0.607 -0.0869 -0.1477  0.2943
 5259W        W14739   1.082   1.991   0.018  0.0242 -0.1110 -0.2497
 5260W        W14740   2.341   2.846   1.473 -0.1810  0.1220  0.0558
 5261W        W14741  13.039   0.997   2.150 -0.1549  0.1233 -0.2272
 5262W        W14742  13.626   7.403   2.787  0.1985  0.1497 -0.3883
 5263W        W14743   0.871   2.466   0.331  0.1358  0.1514 -0.1868
 5264W        W14744  13.244   1.860   8.623  0.0997  0.2267  0.0174
 5265W        W14745  11.900  14.458   1.386  0.1731 -0.1389 -0.3146
 5266W        W14746  13.135  14.782   0.793 -0.0839  0.2388  0.1700
 5267W        W14747   3.682   7.850   1.773 -0.1693  0.0150  0.2806
 5268W        W14748   0.669   2.568   1.148 -0.0586 -0.1086 -0.1297
 5269W        W14749   8.888  13.942   0.858  0.1504 -0.0807 -0.2382
 5270W        W14750   3.898  13.495   0.964  0.0459  0.1155  0.5651
 5271W        W14751   1.393   1.608   7.856  0.0455 -0.0886  0.1151
 5272W        W14752   0.444  14.111   9.100 -0.2714 -0.0298  0.2483
 5273W        W14753   1.266   4.980   8.465 -0.0830  0.1328 -0.2716
 5274W        W14754   3.478   2.953   8.211 -0.0202 -0.2138  0.2230
 5275W        W14755   4.933   3.927   8.134 -0.0140 -0.1331  0.0231
 5276W        W14756  14.869   3.239   6.996  0.1799 -0.1047  0.1150
 5277W        W14757  15.321   3.912   8.313 -0.0838  0.0634  0.1021
 5278W        W14758   7.227  13.537   1.977 -0.4383  0.0746 -0.1174
 5279W        W14759  13.103   5.485   6.286 -0.2701 -0.1048 -0.0962
 5280W        W14760   0.098  14.526   8.516 -0.4190  0.1453 -0.0759
 5281W        W14761   5.012   1.385   8.049 -0.0291  0.0129 -0.1140
 5282W        W14762   5.791  14.125   1.506 -0.2390 -0.0940 -0.1334
 5283W        W14763   4.877   2.790   0.152 -0.1391  0.3595  0.0151
 5284W        W14764   8.639   5.887   1.080 -0.2246 -0.2439  0.1273
 5285W        W14765   3.740  15.051   7.590 -0.1029  0.1301 -0.2981
 5286W        W14766   8.105  11.297   6.545  0.1059  0.2049 -0.0631
 5287W        W14767   7.152   3.721   1.013 -0.0247 -0.0482 -0.2174
 5288W        W14768   6.319  15.147   7.459 -0.0793 -0.0117  0.0332
 5289W        W14769   7.113   6.564   0.316  0.1232  0.1475 -0.0266
 5290W        W14770   4.636   8.480   7.062  0.0657 -0.1302  0.2715
 5291W        W14771   9.191   4.803   7.940  0.1184 -0.0883  0.0041
 5292W        W14772  15.125   4.819   0.839  0.1707  0.1913  0.2522
 5293W        W14773   2.697  14.866   1.184 -0.1811  0.1275 -0.0510
 5294W        W14774   9.363  15.134   6.983  0.1713 -0.0443  0.0521
 5295W        W14775   8.221  14.369   0.492 -0.1398 -0.1885 -0.0445
 5296W        W14776   6.685   0.218   2.238 -0.1762 -0.1674  0.0212
 5297W        W14777   6.708   2.787   6.633 -0.0861  0.1072 -0.1649
 5298W        W14778   3.753   9.542   2.068 -0.1909 -0.0712 -0.0651
 5299W        W14779   1.685   7.288   1.668 -0.0314  0.0698  0.0532
 5300W        W14780  14.234   3.582   0.621 -0.0907 -0.1655 -0.0254
 5301W        W14781   3.590   3.429   8.362 -0.1664 -0.0105 -0.0729
 5302W        W14782   4.855   0.870   1.768  0.1710  0.0289 -0.1622
 5303W        W14783   4.428   1.244   0.014 -0.2026  0.3148 -0.2963
 5304W        W14784   4.059   1.257   0.818  0.2697  0.0015  0.0902
 5305W        W14785   5.371   4.207   0.346  0.2715  0.0729  0.2693
 5306W        W14786   7.908   2.666   0.489  0.2776  0.4265 -0.0872
 5307W        W14787  13.100   1.209   8.080 -0.1083  0.0850  0.0498
 5308W        W14788   2.439  12.597   0.057 -0.0684 -0.0803  0.1769
 5309W        W14789   4.944  15.315   1.502  0.1464 -0.1243  0.0979
 5310W        W14790   3.175   4.108   0.169 -0.0265  0.0628  0.1448
 5311W        W14791   8.551   2.296   9.016 -0.1199 -0.2513 -0.3561
 5312W        W14792   7.269  15.283   0.901  0.4260  0.3897 -0.0370
 5313W        W14793   9.851   5.350   2.276 -0.0398  0.2435 -0.0454
 5314W        W14794   8.525   2.625   2.567 -0.0744 -0.1647 -0.2124
 5315W        W14795   6.755  13.033   0.207  0.3017 -0.0781 -0.2636
 5316W        W14796   4.676  13.833   1.733  0.0158 -0.1248  0.1557
 5317W        W14797  11.340   3.497   7.628 -0.0899  0.0263  0.0600
 5318W        W14798   5.444   3.263   2.319 -0.2757 -0.2253  0.1243
 5319W        W14799   8.364   3.536   7.038  0.1166  0.0640  0.2312
 5320W        W14800  11.798   1.499   8.626 -0.0843  0.0543  0.0972
 5321W        W14801  13.900   5.836   0.479  0.0631  0.1056 -0.0589
 5322W        W14802   8.485  14.181   0.047  0.0661  0.0055  0.0011
 5323W        W14803  11.169   7.134   0.430  0.1338  0.1308  0.1516
 5324W        W14804   6.067   3.917   7.143 -0.0970 -0.4135 -0.0409
 5325W        W14805  15.368  13.962   0.764  0.0744  0.0731  0.1050
 5326W        W14806   5.733   1.528   0.422 -0.2101  0.0061 -0.0433
 5327W        W14807   4.911   4.971   1.112  0.2131 -0.0237 -0.1824
 5328W        W14808  10.413   1.660   0.260 -0.4717  0.0389 -0.2818
 5329W        W14809  11.552   5.281   8.371 -0.2845  0.0996  0.3155
 5330W        W14810   5.859  14.564   0.077 -0.2109  0.3665  0.1885
 5331W        W14811  11.214  14.874   0.398 -0.0127  0.3747  0.1888
 5332W        W14812  10.133   2.042   1.590  0.1446 -0.3237 -0.1109
 5333W        W14813   8.249   4.734   0.705 -0.3370 -0.1468 -0.1560
 5334W        W14814  11.520  14.867   6.686  0.1112 -0.1183  0.2396
 5335W        W14815  12.634   4.655   2.344 -0.2431 -0.2131  0.3035
 5336W        W14816   8.757   3.376   0.564 -0.1131 -0.1411 -0.2461
 5337W        W14817   9.063   3.819   8.995 -0.0579 -0.0153  0.1587
 5338W        W14818   4.600   1.062   6.952  0.1649 -0.1210  0.2631
 5339W        W14819   8.348   2.769   7.687  0.2263 -0.3724 -0.0724
 5340W        W14820   8.775   2.267   1.399 -0.1946  0.0707 -0.0176
 5341W        W14821  11.030  14.743   6.631  0.0565  0.0408 -0.2647
 5342W        W14822   6.581   7.476   7.088  0.1664 -0.0175  0.0557
 5343W        W14823   8.771   6.014   7.484  0.2079  0.4408 -0.2629
 5344W        W14824  10.070   0.823   6.378  0.2017 -0.0125  0.3336
 5345W        W14825   0.323  15.307   7.160 -0.2186  0.1945  0.2116
 5346W        W14826  11.970   8.709   1.021  0.1601  0.1371  0.2328
 5347W        W14827  11.199   0.528   1.432  0.1155  0.3981  0.1004
 5348W        W14828   9.697  13.966   8.102 -0.1522 -0.1560  0.1210
 5349W        W14829   8.982   1.774   0.873 -0.1438 -0.1114 -0.1254
 5350W        W14830   5.148  15.085   8.237 -0.1949  0.0221 -0.2305
 5351W        W14831  10.664   6.173   8.460  0.3233 -0.0508 -0.2357
 5352W        W14832  15.029   4.277   6.529 -0.1305 -0.1155  0.0676
 5353W        W14833   7.820  13.155   1.223 -0.1034  0.1481 -0.1314
 5354W        W14834  13.550   5.859   8.607  0.0222  0.0040 -0.1530
 5355W        W14835  12.546   2.017   2.373  0.0571 -0.0840 -0.1133
 5356W        W14836  12.948   1.445   0.778  0.1217 -0.2886 -0.0493
 5357W        W14837   2.592  13.079   1.782  0.1759 -0.1288 -0.2018
 5358W        W14838  11.030   5.237   0.917 -0.0311 -0.0303 -0.1173
 5359W        W14839  12.708   3.508   1.042 -0.5025 -0.1184  0.0865
 5360W        W14840   2.073   4.136   0.151  0.1266  0.1641 -0.3491
 5361W        W14841   8.723  13.050   8.534  0.1069 -0.1416  0.2501
 5362W        W14842  14.874  11.090   0.253  0.0083 -0.3138  0.0535
 5363W        W14843  14.806  14.602   7.364 -0.2492  0.0334 -0.1057
 5364W        W14844   1.570  12.572   1.613 -0.0390 -0.3009 -0.2030
 5365W        W14845   9.265   4.399   6.726  0.0874 -0.1104 -0.0607
 5366W        W14846  12.610   1.719   2.737  0.3855 -0.1117  0.2935
 5367W        W14847   6.263   7.575   0.090 -0.0388 -0.2351 -0.4286
 5368W        W14848   0.113   1.150   0.313 -0.4191 -0.1474  0.1626
 5369W        W14849  10.043   3.742   7.991  0.2025 -0.0111  0.0379
 5370W        W14850  14.531   9.559   7.859 -0.0262  0.1011  0.4225
 5371W        W14851  11.267  14.812   7.290  0.0155  0.0115  0.0673
 5372W        W14852  15.356   4.102   7.461  0.0362 -0.2361  0.0439
 5373W        W14853   0.151   2.932   7.604  0.0819 -0.1978  0.1840
 5374W        W14854  14.301   3.269   8.047  0.2277  0.0800 -0.1031
 5375W        W14855   2.764   2.691   1.317  0.1390  0.0147  0.1513
 5376W        W14856  10.034   1.742   7.488  0.1307 -0.2184 -0.0345
 5377W        W14857  13.020   3.224   1.444 -0.0694 -0.1267  0.1559
 5378W        W14858  13.008   8.202   0.871 -0.1542  0.1156 -0.2020
 5379W        W14859  12.070  11.780   0.575 -0.1522 -0.2782  0.2617
 5380W        W14860  10.928   2.410   1.893  0.5622 -0.0769  0.1347
 5381W        W14861  11.598   2.541   7.717 -0.2117  0.2988 -0.1798
 5382W        W14862  12.834  13.929   0.950  0.1900  0.0796 -0.0397
 5383W        W14863   4.883   2.922   2.670 -0.1733  0.0454  0.1580
 5384W        W14864  13.021   0.842   0.739 -0.0075  0.0901 -0.1086
 5385W        W14865   9.513   5.172   1.290 -0.2582  0.0183 -0.2029
 5386W        W14866   1.984  12.258   1.547 -0.0736  0.1643 -0.0882
 5387W        W14867  15.127   7.709   8.460 -0.2143  0.1458 -0.1902
 5388W        W14868  13.778   4.028   8.331 -0.4200  0.2712  0.0466
 5389W        W14869  12.524  12.790   7.689 -0.0526 -0.0479  0.1913
 5390W        W14870  13.193  15.310   0.795  0.1359  0.0586 -0.0762
 5391W        W14871  10.489  12.607   2.210 -0.0454 -0.2803  0.0447
 5392W        W14872   3.076   5.529   1.957  0.0476 -0.1729 -0.1049
 5393W        W14873   2.165  10.606   0.031  0.0447  0.0022  0.1885
 5394W        W14874   3.211   5.468   6.370 -0.3055 -0.1782  0.0836
 5395W        W14875   1.900  12.987   8.586 -0.0954 -0.0753 -0.2262
 5396W        W14876  11.891   7.171   1.000 -0.0378  0.2389 -0.0903
 5397W        W14877   2.938   0.325   8.164  0.0595 -0.0495 -0.2436
 5398W        W14878   2.365   3.978   8.855  0.0115 -0.1877  0.0190
 5399W        W14879   1.445  11.017   7.404 -0.0422 -0.5369 -0.0921
 5400W        W14880   1.144   3.297   8.500  0.0568 -0.0566 -0.2711
 5401W        W14881  11.214  11.040   0.098  0.2485  0.0448  0.1610
 5402W        W14882   0.042   9.749   6.429 -0.1383  0.1713 -0.1246
 5403W        W14883  14.151   2.481   7.900  0.0033  0.0184 -0.1077
 5404W        W14884  12.210  11.121   8.841 -0.0898  0.0659  0.1023
 5405W        W14885   5.685   7.859   0.296  0.3912 -0.0534  0.1434
 5406W        W14886  12.593   0.286   8.568  0.1748 -0.3579  0.1264
 5407W        W14887  15.010   9.462   7.132 -0.1439  0.0076  0.2212
 5408W        W14888   8.700   4.896   0.822 -0.0316  0.3192  0.1695
 5409W        W14889   2.169   7.990   1.175 -0.0105 -0.1833 -0.0113
 5410W        W14890   0.642   6.536   0.889  0.0847 -0.0385 -0.1570
 5411W        W14891  15.288   4.799   7.659  0.0245 -0.0153 -0.2481
 5412W        W14892   2.827   7.901   7.475  0.2424 -0.1503  0.5241
 5413W        W14893  10.926   3.256   7.546 -0.0875 -0.2198  0.0526
 5414W        W14894   3.020   3.000   9.070 -0.0967 -0.0309 -0.4877
 5415W        W14895   8.230   3.479   7.508  0.1645 -0.2971 -0.0410
 5416W        W14896   4.395   5.630   1.115  0.1871 -0.0049  0.1632
 5417W        W14897  14.642   7.601   8.659 -0.0333  0.0634  0.1302
 5418W        W14898   0.065   5.380   1.732  0.2239  0.0219  0.2502
 5419W        W14899   3.797   5.840   0.214 -0.3715  0.2509 -0.0887
 5420W        W14900   7.554  11.292   7.923 -0.0903 -0.0389 -0.2528
 5421W        W14901   2.411   9.308   8.365  0.2405 -0.0138  0.0139
 5422W        W14902   3.384   6.052   0.802 -0.1586 -0.1029 -0.1174
 5423W        W14903   6.983   0.567   1.627 -0.0255 -0.0575 -0.0290
 5424W        W14904   3.332   4.229   7.912 -0.0888  0.4956 -0.2342
 5425W        W14905   0.065   2.136   8.206 -0.0645  0.0338  0.0919
 5426W        W14906   3.957   5.555   7.247  0.1917  0.0178  0.3052
 5427W        W14907   7.624   6.405   7.969 -0.5038 -0.1193 -0.1929
 5428W        W14908   4.139   0.874   8.203  0.1268 -0.1848 -0.0126
 5429W        W14909   6.611   4.287   1.555  0.3161  0.1945  0.4044
 5430W        W14910   2.085   6.020   7.786 -0.0269  0.0292 -0.2153
 5431W        W14911   6.216   2.753   0.382 -0.0535 -0.0969 -0.1020
 5432W        W14912   4.566  10.372   0.045  0.2013  0.0323 -0.0288
 5433W        W14913   1.736   5.030   8.208 -0.1466 -0.1918 -0.2263
 5434W        W14914   5.889   5.513   8.376 -0.0104 -0.2131  0.1960
 5435W        W14915  14.670   5.711   7.803 -0.1515  0.1672  0.0955
 5436W        W14916   1.728   3.157   8.505 -0.1417 -0.1473 -0.0111
 5437W        W14917   3.177   7.016   0.961  0.1224 -0.0989 -0.2401
 5438W        W14918   1.831  15.065   8.510 -0.1766 -0.1609  0.0806
 5439W        W14919   8.145   1.487   8.173 -0.0343 -0.1382  0.2856
 5440W        W14920   3.825   9.032   2.914 -0.1951 -0.1304 -0.0394
 5441W        W14921   7.264   5.514   7.647 -0.1153  0.1750 -0.1177
 5442W        W14922   6.407   5.689   8.285  0.0238  0.0022  0.1032
 5443W        W14923   0.789   8.051   0.688  0.0592 -0.1327  0.2739
 5444W        W14924   7.705   5.047   2.122 -0.0996 -0.0813 -0.1959
 5445W        W14925   9.155  14.191   7.079 -0.0683  0.0762  0.2023
 5446W        W14926   2.643   6.599   2.728 -0.2231 -0.0042  0.2276
 5447W        W14927   8.584   0.502   7.849  0.1865  0.0427 -0.2510
 5448W        W14928  10.621   4.519   0.631 -0.1489 -0.4435  0.0629
 5449W        W14929   5.338   3.751   0.404  0.0427  0.0377 -0.1076
 5450W        W14930   2.602   0.014   8.954 -0.0678 -0.3203 -0.1259
 5451W        W14931   6.881   0.919   1.207  0.0579  0.2259 -0.1028
 5452W        W14932  12.988   5.147   8.517 -0.1876  0.0035  0.1133
 5453W        W14933   5.766  10.166   1.836 -0.0618  0.0840  0.2358
 5454W        W14934   6.118   6.422   1.996 -0.1775 -0.0951  0.2032
 5455W        W14935   3.662   5.763   7.629 -0.0066 -0.0488  0.1377
 5456W        W14936   9.555   8.594   7.206  0.1387 -0.0331 -0.0107
 5457W        W14937  12.438   3.896   0.220  0.0476  0.1431 -0.1511
 5458W        W14938   3.634   0.354   1.181  0.3407  0.2380  0.4060
 5459W        W14939   6.874   6.644   1.871 -0.3491 -0.3365 -0.2796
 5460W        W14940   7.165   7.442   7.119 -0.1173  0.2152  0.2101
 5461W        W14941   5.614  10.225   6.604 -0.3693 -0.2002  0.0841
 5462W        W14942   6.133   8.422   0.923 -0.0729 -0.0292 -0.2443
 5463W        W14943   8.834   4.321   8.138  0.0072  0.0452  0.1526
 5464W        W14944   8.878   0.436   8.645 -0.0422  0.1354 -0.0451
 5465W        W14945   7.079   6.092   1.532 -0.3098 -0.4426  0.0646
 5466W        W14946  13.953   6.496   7.875 -0.0382  0.1121 -0.1708
 5467W        W14947   4.578   1.855   8.893 -0.4522  0.0081  0.1540
 5468W        W14948  10.772  15.320   1.649 -0.2034 -0.1392  0.0269
 5469W        W14949   0.235   2.146   8.935  0.0933  0.4302 -0.3166
 5470W        W14950   9.743  14.331   7.805 -0.0769 -0.0754  0.1600
 5471W        W14951  14.115   1.129   7.479  0.1561 -0.0849 -0.2757
 5472W        W14952  15.327   2.534   6.382 -0.3796 -0.1214  0.1693
 5473W        W14953   6.786  14.353   7.502  0.3377  0.0663  0.0587
 5474W        W14954   2.391   4.053   1.669  0.0026 -0.1801  0.1437
 5475W        W14955   8.804  11.241   8.531 -0.1102  0.0222  0.1651
 5476W        W14956  11.288   5.030   0.087  0.1679 -0.4299  0.0218
 5477W        W14957   8.913   0.421   2.696 -0.1988  0.2942  0.1942
 5478W        W14958   9.607   2.087   7.549  0.0907  0.0092 -0.2077
 5479W        W14959  11.520   1.556   1.859 -0.1893 -0.0590 -0.0253
 5480W        W14960   9.556   3.059   1.074  0.1203 -0.2512 -0.0892
 5481W        W14961   6.212   2.942   9.026  0.0827  0.2551 -0.1321
 5482W        W14962   7.542   6.061   0.829 -0.3815 -0.0540  0.0799
 5483W        W14963   9.887   4.397   7.406 -0.0825  0.1609 -0.0967
 5484W        W14964   8.820   5.045   7.568  0.0970  0.1831 -0.0580
 5485W        W14965  14.376   1.974   0.770 -0.0726 -0.0102 -0.0310
 5486W        W14966  12.909   0.489   7.977  0.3327 -0.1196  0.2455
 5487W        W14967  11.487   4.792   6.781  0.1431 -0.0192  0.0940
 5488W        W14968  12.903   3.873   1.316  0.1469 -0.1757 -0.1677
 5489W        W14969  10.469   8.742   8.211 -0.1885  0.0384  0.2165
 5490W        W14970   1.756   5.984   0.697  0.1356  0.2195 -0.0198
 5491W        W14971  14.954   8.944   1.403 -0.0676  0.1217 -0.0456
 5492W        W14972  14.537   5.527   8.520  0.1692  0.3374  0.0683
 5493W        W14973   9.189   1.791   8.455 -0.0611 -0.0382  0.1129
 5494W        W14974   9.449   6.519   0.848 -0.0836  0.0500 -0.1968
 5495W        W14975   3.186   7.275   8.663  0.0037  0.2055  0.0291
 5496W        W14976   1.281   7.541   8.974  0.0910 -0.0062 -0.1893
 5497W        W14977  15.008   9.090   7.427 -0.1127 -0.0069  0.0214
 5498W        W14978   2.290   8.495   8.921 -0.1505 -0.2959 -0.4408
 5499W        W14979  12.659  15.258   7.329  0.3701 -0.3432  0.0859
 5500W        W14980  11.024   0.248   7.162 -0.1740  0.0795 -0.0658
 5501W        W14981  11.319   5.569   7.955 -0.1392  0.2454 -0.1886
 5502W        W14982   7.902  11.790   6.539  0.2078 -0.0268 -0.1427
 5503W        W14983   0.205   6.652   2.378  0.0187 -0.0191  0.2864
 5504W        W14984   9.002  10.026   2.479  0.0114 -0.0635  0.2826
 5505W        W14985  13.209   7.523   1.377  0.0627 -0.0012  0.1162
 5506W        W14986   0.197  11.241   7.844  0.1578 -0.3180  0.1918
 5507W        W14987  11.463   7.305   0.088 -0.0805  0.2144  0.0844
 5508W        W14988   8.023   8.334   0.964  0.1820  0.0828  0.0909
 5509W        W14989  11.399   9.169   8.305  0.1496  0.0182  0.1182
 5510W        W14990  14.211   7.062   7.225 -0.0837 -0.2333 -0.2251
 5511W        W14991   0.782  14.833   7.684  0.1617 -0.0450  0.1415
 5512W        W14992   1.430   2.845   7.083  0.2038  0.3645 -0.0591
 5513W        W14993  11.539   1.969   8.695  0.1203  0.2100 -0.3284
 5514W        W14994  14.568   5.195   7.577 -0.0677 -0.1233  0.1084
 5515W        W14995   2.215   2.032   7.748 -0.2879  0.0460 -0.1351
 5516W        W14996  11.930   7.538   2.434 -0.0320  0.2304  0.0695
 5517W        W14997  12.351   5.087   2.163 -0.0269 -0.0156 -0.1341
 5518W        W14998   3.238   2.375   0.531 -0.0138 -0.2018  0.2567
 5519W        W14999  11.605   5.768   8.464  0.0564  0.0910  0.2943
 5520W        W15000   0.090   2.504   8.522  0.3872  0.0563 -0.1350
 5521W        W15001   1.647   3.646   8.333  0.1122 -0.1568 -0.1219
 5522W        W15002  10.766   8.452   7.981  0.0229  0.0455  0.0004
 5523W        W15003   5.024   2.357   8.457 -0.2275 -0.2462 -0.0016
 5524W        W15004  10.765   8.482   0.770  0.3303  0.3092 -0.4362
 5525W        W15005  12.706   7.353   1.797 -0.1305 -0.0013 -0.0896
 5526W        W15006   6.212   3.661   1.450 -0.2253 -0.2197 -0.0849
 5527W        W15007   5.538   8.097   7.635 -0.0483  0.1461 -0.0441
 5528W        W15008   4.484   5.972   7.448 -0.3534  0.0232  0.0511
 5529W        W15009   3.815   4.826   8.486  0.0891 -0.0943  0.0826
 5530W        W15010   0.169   8.591   0.358  0.0048 -0.2506 -0.1262
 5531W        W15011  11.175  11.695   8.473  0.1446 -0.2835  0.0403
 5532W        W15012   6.989  12.386   7.579  0.1510 -0.1081  0.0038
 5533W        W15013  10.868   5.733   7.612 -0.2360 -0.1295  0.0124
 5534W        W15014   3.750  10.401   1.909  0.3859  0.1019 -0.2075
 5535W        W15015  14.680   6.544   6.591  0.1246  0.0964  0.4536
 5536W        W15016   1.221  12.457   8.497  0.0959  0.0798  0.0393
 5537W        W15017   0.715   7.949   7.537  0.0371 -0.0125  0.0540
 5538W        W15018   5.325   5.707   1.843  0.2681  0.0928 -0.2787
 5539W        W15019   1.457   5.371   1.895 -0.3038  0.0049  0.1309
 5540W        W15020  14.684  10.123   7.062  0.1698  0.1041 -0.2553
 5541W        W15021   4.100  14.777   0.130 -0.0527 -0.1912  0.2643
 5542W        W15022  13.922  12.696   0.886 -0.1212  0.1133 -0.2280
 5543W        W15023   7.296   6.024   7.741  0.0102  0.1303 -0.2198
 5544W        W15024  12.397   9.976   1.158  0.0535 -0.1439  0.2032
 5545W        W15025   2.167  15.364   7.974  0.0963  0.2166  0.1984
 5546W        W15026   3.554   3.657   8.806 -0.1202  0.0862 -0.0841
 5547W        W15027  14.596   9.389   1.405  0.2867 -0.0199  0.3399
 5548W        W15028   3.760   9.532   7.536 -0.1172  0.3176 -0.4573
 5549W        W15029  10.402  13.826   0.652  0.5337 -0.1412 -0.0664
 5550W        W15030  14.795   4.327   1.459  0.2055  0.0553 -0.0966
 5551W        W15031   0.723   6.757   2.717 -0.3699 -0.1077 -0.0427
 5552W        W15032   2.894   3.202   1.381 -0.1421 -0.0312  0.4800
 5553W        W15033   0.572  13.689   6.644 -0.1328 -0.3240 -0.1598
 5554W        W15034   3.535   6.512   8.875 -0.0605  0.1578  0.0013
 5555W        W15035   0.232   6.256   7.313  0.2965  0.1184  0.0667
 5556W        W15036   5.668   6.352   6.784  0.0983 -0.3326  0.0539
 5557W        W15037   8.404  13.657   2.122  0.0899  0.2160 -0.2158
 5558W        W15038   9.012  10.371   8.843  0.0801  0.3195  0.2234
 5559W        W15039   3.147   9.646   8.004 -0.3879 -0.2096 -0.1488
 5560W        W15040   1.085  11.044   6.561  0.2011  0.0328 -0.1830
 5561W        W15041   9.407   8.154   1.341 -0.2256 -0.1618  0.3844
 5562W        W15042  10.083  11.991   1.186  0.1569 -0.0677  0.1727
 5563W        W15043   5.936   9.756   8.321 -0.4156 -0.0340  0.1686
 5564W        W15044   6.495  10.377   1.941 -0.1739  0.2066 -0.1531
 5565W        W15045   3.866  11.436   7.704  0.0357 -0.5616  0.4128
 5566W        W15046   8.670   8.417   1.347 -0.0656  0.0687 -0.2210
 5567W        W15047   7.459  12.965   6.347 -0.0924 -0.0221 -0.1066
 5568W        W15048   0.893   7.829   1.135  0.0462 -0.0703  0.0657
 5569W        W15049   7.167  12.992   2.006  0.1705 -0.1334 -0.1815
 5570W        W15050  11.595   8.286   6.532 -0.0033 -0.3826 -0.1682
 5571W        W15051   7.566  12.147   0.871  0.1829 -0.0094  0.1161
 5572W        W15052  14.096   4.055   6.968  0.1532 -0.1395 -0.1582
 5573W        W15053   2.602  11.664   1.577 -0.0683  0.0079 -0.0064
 5574W        W15054   3.884   1.657   2.825 -0.1343 -0.0755 -0.2117
 5575W        W15055   4.969  10.737   7.948 -0.0955 -0.0649 -0.2366
 5576W        W15056   6.704   9.928   1.755  0.1911  0.1220 -0.1841
 5577W        W15057   5.621  11.369   7.514  0.0608  0.1360 -0.1149
 5578W        W15058   6.787   4.626   6.500 -0.1149  0.1387  0.0302
 5579W        W15059   6.866   7.579   7.497  0.1653  0.2797  0.1919
 5580W        W15060   4.618   3.268   6.965 -0.0646 -0.2725  0.0446
 5581W        W15061  15.144   9.131   7.920  0.1391  0.2137 -0.1106
 5582W        W15062   8.383  10.394   8.917 -0.0731 -0.0888  0.2507
 5583W        W15063   8.225  13.008   2.772  0.3997  0.0381 -0.1080
 5584W        W15064   6.661   8.241   8.302 -0.0366  0.0772  0.1814
 5585W        W15065   7.366  11.627   1.994 -0.0581  0.1428  0.0068
 5586W        W15066   8.069  11.674   8.708 -0.2599  0.1487  0.1468
 5587W        W15067  12.937   6.526   2.191 -0.1363  0.1216  0.2395
 5588W        W15068   7.942   5.168   6.814 -0.0834 -0.2151 -0.3135
 5589W        W15069   5.544   6.681   1.452 -0.0406  0.0094  0.0656
 5590W        W15070   5.302   2.686   1.208  0.1282  0.0975  0.0628
 5591W        W15071   9.205  13.358   1.489 -0.1016 -0.1713 -0.0930
 5592W        W15072   5.759   8.923   7.774  0.0200 -0.2031  0.0405
 5593W        W15073  12.508  11.611   7.696 -0.2549 -0.0556  0.1297
 5594W        W15074   4.377   8.286   2.060 -0.0577 -0.0297  0.3923
 5595W        W15075   9.387  11.940   6.923 -0.0690  0.3684 -0.1631
 5596W        W15076   8.457   8.436   6.837 -0.1581  0.3127  0.1112
 5597W        W15077   3.202   6.980   1.924  0.1057  0.0581  0.2071
 5598W        W15078  11.779  10.604   7.712 -0.1183  0.1202 -0.2455
 5599W        W15079   8.277   8.254   1.825  0.3088 -0.0338  0.0135
 5600W        W15080   0.498  12.410   7.904 -0.0445 -0.0903  0.1447
 5601W        W15081   7.703  10.849   8.742 -0.0900 -0.0007  0.3084
 5602W        W15082  11.727   5.199   7.887  0.0763 -0.0844 -0.4939
 5603W        W15083   9.364   4.655   8.388  0.0868  0.2236 -0.1409
 5604W        W15084   5.666   1.802   6.777 -0.0547  0.2918  0.0789
 5605W        W15085   3.070  11.048   1.975  0.0594  0.0068  0.2857
 5606W        W15086  11.160   6.829   1.352 -0.0619  0.0203 -0.0257
 5607W        W15087   8.432   7.248   7.402  0.1083 -0.0364  0.4282
 5608W        W15088   9.847  10.847   7.263 -0.0009  0.1432  0.4109
 5609W        W15089   8.765   5.935   6.178  0.0170 -0.2295  0.3433
 5610W        W15090  11.209  10.538   7.461 -0.2531  0.0726 -0.2060
 5611W        W15091   4.482  10.105   0.495 -0.0510  0.2394  0.0223
 5612W        W15092   8.227   1.914   7.448 -0.1513 -0.0192  0.3713
 5613W        W15093  10.705   8.300   1.617  0.2997  0.1440 -0.1792
 5614W        W15094  14.236   8.708   7.645  0.0893 -0.0749  0.1959
 5615W        W15095   9.743   8.751   0.223 -0.0240  0.2349  0.0680
 5616W        W15096   5.255   2.170   8.850  0.0078  0.0556 -0.0044
 5617W        W15097  10.977   5.220   7.635  0.2440 -0.2014 -0.0150
 5618W        W15098   9.703   7.399   0.317  0.1083  0.0781 -0.0558
 5619W        W15099   0.265   0.474   2.716  0.0547 -0.2947  0.0086
 5620W        W15100   3.032  10.390   8.822 -0.1483  0.2511  0.2291
 5621W        W15101  10.006   4.100   8.371 -0.4419  0.0022  0.0856
 5622W        W15102   2.446   3.318   1.202  0.0266  0.2991 -0.1116
 5623W        W15103   5.911   4.020   1.736 -0.3337 -0.0171 -0.1401
 5624W        W15104   1.288  11.494   7.237  0.1458 -0.1200  0.0102
 5625W        W15105   3.779  13.000   1.232  0.2550 -0.3059 -0.1263
 5626W        W15106   9.155   8.892   6.893  0.2165  0.1311  0.1761
 5627W        W15107  12.979   8.030   1.344  0.0752  0.1014 -0.1162
 5628W        W15108   0.940   6.852   0.159 -0.2478 -0.1066  0.1927
 5629W        W15109  12.435   6.541   0.435 -0.2809  0.2773  0.0397
 5630W        W15110   1.475  12.369   2.904 -0.2503 -0.1045  0.2129
 5631W        W15111  10.527   6.801   9.051  0.3005  0.1228  0.1476
 5632W        W15112   2.033  10.833   1.289 -0.0872  0.0676 -0.2659
 5633W        W15113   6.259   6.037   2.311 -0.0469 -0.2737 -0.0608
 5634W        W15114  11.569  13.313   8.544 -0.0151  0.0388 -0.1161
 5635W        W15115  13.749  11.998   8.805  0.0513  0.0167 -0.0920
 5636W        W15116  14.001   3.673   1.748 -0.0529  0.0429 -0.1312
 5637W        W15117   8.582  13.762   8.414 -0.2071  0.1385  0.1735
 5638W        W15118   2.667   3.847   7.089  0.2465  0.0848 -0.1444
 5639W        W15119   4.496   9.361   1.056 -0.1405 -0.1511  0.0616
 5640W        W15120  11.420   9.099   7.356  0.0775  0.4189  0.0957
 5641W        W15121   3.898  10.640   1.133 -0.0738  0.1259 -0.0114
 5642W        W15122   3.950   0.801   1.097  0.0265  0.2876  0.0298
 5643W        W15123   0.049  15.224   2.395  0.1820 -0.2412 -0.1973
 5644W        W15124  14.625   8.854   1.786  0.0893  0.1931  0.3255
 5645W        W15125   2.394   7.274   7.107 -0.0550  0.3879  0.0586
 5646W        W15126  12.750   8.238   1.695 -0.0255 -0.1093 -0.1376
 5647W        W15127  12.001   8.682   6.481  0.1353  0.1413  0.2489
 5648W        W15128  14.441   6.297   7.709  0.0789  0.0808 -0.2143
 5649W        W15129  12.988  11.051   6.879  0.3972 -0.0142  0.0357
 5650W        W15130  13.985   6.972   1.257 -0.2474 -0.1077 -0.0956
 5651W        W15131   0.147   6.399   8.686 -0.2496 -0.0251 -0.0231
 5652W        W15132   1.330   5.310   2.510  0.1945 -0.0658  0.1781
 5653W        W15133   2.043   8.152   7.411 -0.1882 -0.0786  0.0603
 5654W        W15134  13.839  10.916   1.485  0.1505  0.1488 -0.0080
 5655W        W15135  14.909  12.159   1.794  0.3343 -0.1026 -0.0234
 5656W        W15136  15.185  13.347   7.845  0.1014  0.2844 -0.5110
 5657W        W15137   2.076   3.467   6.908  0.0417  0.1796  0.0259
 5658W        W15138   7.900   4.674   1.052  0.1648 -0.3245  0.2299
 5659W        W15139   5.134   7.991   0.393 -0.3966 -0.1508  0.2792
 5660W        W15140   4.001   2.676   6.998  0.0941 -0.2960 -0.0999
 5661W        W15141   1.294  12.287   0.271 -0.0192 -0.3912  0.1144
 5662W        W15142  12.948  10.165   7.385  0.0048 -0.0722 -0.1493
 5663W        W15143  14.662  10.400   7.499  0.1890 -0.1302 -0.0530
 5664W        W15144   1.405  14.114   7.903 -0.3009  0.2516  0.2071
 5665W        W15145   4.111   9.949   7.428  0.0155  0.3096  0.0902
 5666W        W15146   0.281  11.849   2.640 -0.0498 -0.0581 -0.0185
 5667W        W15147   7.614   3.021   1.213 -0.0036 -0.0564  0.2440
 5668W        W15148  14.425  12.633   8.620 -0.1458  0.0088  0.3681
 5669W        W15149  13.828   0.846   8.137  0.2589 -0.0789 -0.3027
 5670W        W15150   1.290  12.525   0.769  0.3110 -0.0886 -0.1580
 5671W        W15151   0.939  13.794   1.949 -0.1159  0.2717 -0.4053
 5672W        W15152   0.680   7.553   7.189  0.3182 -0.0422 -0.0943
 5673W        W15153   5.453  12.354   8.304 -0.3054  0.0690  0.1147
 5674W        W15154   3.002  10.391   0.232  0.0792  0.0230 -0.0715
 5675W        W15155   9.384  15.439   1.857  0.2060 -0.2209  0.0526
 5676W        W15156   5.199  11.063   6.732 -0.2469  0.2295  0.3168
 5677W        W15157  13.973  10.657   8.426 -0.0198  0.1705  0.0120
 5678W        W15158   3.349   2.958   1.275 -0.1515 -0.0294  0.0315
 5679W        W15159   0.722  13.597   2.451  0.0471  0.1171 -0.0195
 5680W        W15160   4.639   9.398   2.574 -0.4130 -0.0339  0.2257
 5681W        W15161   3.804  12.861   8.895  0.5184 -0.1651  0.2460
 5682W        W15162   1.477   4.801   6.672  0.0105  0.0034  0.1152
 5683W        W15163   2.162   9.727   2.519  0.1102  0.0723  0.1201
 5684W        W15164   3.569   7.598   2.437  0.2830 -0.1708 -0.0475
 5685W        W15165  14.947   9.274   8.956 -0.4777  0.2068 -0.0092
 5686W        W15166   3.533  12.980   1.693 -0.0932 -0.0015 -0.2723
 5687W        W15167   2.589   9.675   8.076  0.1385  0.2921 -0.0972
 5688W        W15168  13.409  10.971   7.260  0.0604  0.0001  0.1533
 5689W        W15169   4.409   8.193   1.534 -0.1755  0.1577  0.0328
 5690W        W15170   2.662  14.605   8.596  0.1366  0.1873  0.3094
 5691W        W15171   9.746   8.984   1.300  0.0495  0.2477  0.0728
 5692W        W15172   5.003   9.382   0.302  0.1148 -0.2118  0.2992
 5693W        W15173   3.978   0.797   7.748  0.0103  0.2160  0.3377
 5694W        W15174  12.652  12.703   6.341  0.0749  0.2622  0.1629
 5695W        W15175   5.116   6.401   7.694 -0.0629  0.1222 -0.0751
 5696W        W15176   2.444  11.410   2.686  0.4300  0.0555  0.0599
 5697W        W15177   2.894  12.027   1.708  0.0917 -0.0782  0.2345
 5698W        W15178   7.179  13.950   0.362 -0.2313 -0.4056  0.0294
 5699W        W15179  12.833   9.655   6.408 -0.0997 -0.1787  0.5034
 5700W        W15180   8.851   0.460   0.900 -0.0341  0.0414 -0.2572
 5701W        W15181   7.205  14.022   2.592  0.2115  0.3040 -0.2004
 5702W        W15182   9.583  13.933   2.270 -0.0505 -0.0529 -0.2591
 5703W        W15183  10.015  10.807   1.282 -0.0581 -0.3977  0.4209
 5704W        W15184   6.841  14.381   8.087  0.1169  0.0573  0.3286
 5705W        W15185   9.732   0.691   6.706  0.1936  0.1103  0.0794
 5706W        W15186   1.946  10.501   1.735  0.0340  0.1815 -0.1463
 5707W        W15187   7.742   7.995   1.655  0.1438 -0.0608  0.0098
 5708W        W15188   3.499  11.158   0.550  0.1825  0.2546 -0.1431
 5709W        W15189   8.464  11.998   0.794  0.2549  0.0264  0.0688
 5710W        W15190   0.956  14.201   8.773  0.0329 -0.1380 -0.1715
 5711W        W15191   4.394   1.621   0.802  0.2382 -0.2204 -0.0209
 5712W        W15192   0.227   2.223   7.128  0.3415  0.1123  0.2486
 5713W        W15193   7.096   8.335   6.986 -0.2924  0.1532 -0.0464
 5714W        W15194   5.735  13.954   0.309 -0.0680 -0.0930  0.0987
 5715W        W15195   6.594  13.645   1.311  0.2679  0.0976 -0.1254
 5716W        W15196   7.795  12.980   8.749 -0.2488  0.0921  0.2186
 5717W        W15197   6.635  12.607   7.978  0.3194 -0.0038  0.1589
 5718W        W15198   2.168  12.756   8.214 -0.1330 -0.4277 -0.1662
 5719W        W15199   1.645   2.251   6.577 -0.3072 -0.4018 -0.0031
 5720W        W15200   6.284   2.202   7.857  0.1320  0.0743 -0.0662
 5721W        W15201  13.903   0.106   2.091  0.2218  0.1673  0.1534
 5722W        W15202   7.333  14.436   7.489 -0.0273 -0.0640  0.1199
 5723W        W15203  11.404   1.592   9.017 -0.2397 -0.3404  0.2077
 5724W        W15204   7.530   7.658   1.295 -0.1176 -0.0189  0.0290
 5725W        W15205   6.431   8.491   1.754 -0.1152 -0.3361  0.0015
 5726W        W15206   8.690   0.641   1.329 -0.0682  0.0796  0.1458
 5727W        W15207   4.442   1.569   2.181 -0.2637 -0.2286  0.0957
 5728W        W15208   2.926   1.698   1.169  0.2037 -0.1735 -0.1473
 5729W        W15209   8.456  12.406   8.794 -0.6189 -0.0478  0.0826
 5730W        W15210   9.223   1.551   6.916 -0.2245  0.1345 -0.0871
 5731W        W15211   8.563   2.119   6.763 -0.1456  0.0443  0.3199
 5732W        W15212  12.801   6.791   0.840 -0.1373  0.0059 -0.2610
 5733W        W15213   7.063  13.897   7.574  0.2654 -0.2160 -0.0146
 5734W        W15214   8.570  12.651   0.657  0.1437  0.2206 -0.1912
 5735W        W15215   4.040   8.742   8.411  0.1522  0.0722 -0.0211
 5736W        W15216   9.422   7.747   1.030 -0.1466  0.0181 -0.0909
 5737W        W15217   2.881   6.286   1.457 -0.1563  0.2050  0.2062
 5738W        W15218   5.166  10.676   7.010 -0.1569  0.1853  0.2090
 5739W        W15219   4.405  11.551   7.792 -0.1956 -0.0142 -0.1119
 5740W        W15220   9.186   5.671   0.132 -0.0487 -0.0112 -0.2352
 5741W        W15221   6.907   4.280   2.068  0.1376  0.2253  0.2896
 5742W        W15222  13.393  13.926   0.652 -0.0988 -0.3377 -0.1651
 5743W        W15223  13.629   9.465   7.683  0.0737 -0.1759 -0.0801
 5744W        W15224   9.992  15.275   8.632 -0.2168  0.2847 -0.0664
 5745W        W15225   9.603   3.703   0.569  0.3252  0.1276  0.0339
 5746W        W15226  13.750  13.693   2.356  0.0592  0.2149  0.0564
 5747W        W15227  14.477  11.935   2.475  0.2694  0.1327 -0.0410
 5748W        W15228  12.203   3.727   7.921  0.0938 -0.1381  0.1584
 5749W        W15229   5.844  10.269   0.453  0.1053  0.2445 -0.3217
 5750W        W15230  11.792   9.765   1.749 -0.0510  0.0315  0.0930
 5751W        W15231   0.761  12.053   8.666  0.2610  0.1727 -0.1792
 5752W        W15232   8.429  14.617   8.873  0.2812 -0.0629  0.0784
 5753W        W15233   6.517  12.427   7.306  0.2196 -0.3160  0.1529
 5754W        W15234   1.758  10.874   0.185  0.0738 -0.2584  0.3106
 5755W        W15235  11.050   0.605   8.165  0.0733  0.0993  0.0241
 5756W        W15236   0.758  13.860   0.545 -0.0623  0.2211  0.2384
 5757W        W15237   9.015   6.217   0.899  0.1343  0.0412 -0.1152
 5758W        W15238   7.790   8.506   7.760  0.1601  0.2815  0.1936
 5759W        W15239   8.008  12.580   9.050  0.3953  0.0229  0.0662
 5760W        W15240   8.082  11.774   1.787  0.0187  0.0242  0.1445
 5761W        W15241  12.751  14.391   8.856  0.0731  0.2741  0.3294
 5762W        W15242  14.054  11.706   1.899  0.1693  0.1241 -0.3783
 5763W        W15243  15.449  11.896   6.829  0.1209  0.2853  0.1272
 5764W        W15244  11.255   3.598   0.897 -0.1339 -0.4383  0.0983
 5765W        W15245  13.455  12.757   8.348  0.1897 -0.2175 -0.3707
 5766W        W15246  11.229  11.304   8.787  0.2008  0.0583 -0.1982
 5767W        W15247  15.124   1.098   0.661  0.0875 -0.2264  0.2666
 5768W        W15248   6.827  13.680   8.688  0.1741 -0.0942  0.0656
 5769W        W15249   8.917  11.592   1.826  0.0134 -0.0945 -0.0555
 5770W        W15250   5.890   1.259   6.799  0.0544  0.1964  0.0357
 5771W        W15251  10.687   9.789   0.419  0.2709  0.1134 -0.2990
 5772W        W15252  13.339   8.821   8.780 -0.2279  0.0524  0.2806
 5773W        W15253  12.235  10.799   6.512  0.0930 -0.1945  0.2230
 5774W        W15254   8.381  10.465   0.674 -0.0816 -0.0622 -0.1166
 5775W        W15255   3.524   9.164   1.593 -0.3001 -0.3911  0.3238
 5776W        W15256   1.249  11.061   0.175  0.0027 -0.0085  0.0915
 5777W        W15257   1.245  11.176   1.843 -0.0460 -0.5072 -0.1764
 5778W        W15258  15.452   6.724   7.191 -0.2902  0.0214  0.3023
 5779W        W15259  15.194  10.428   6.563  0.2876 -0.0602 -0.1476
 5780W        W15260   1.244   9.221   8.612  0.0595  0.0712 -0.2881
 5781W        W15261   1.090   5.623   0.206  0.0243 -0.1032 -0.2225
 5782W        W15262   0.465  13.343   7.843 -0.0554  0.0492 -0.0759
 5783W        W15263   2.142  14.137   6.941  0.2634  0.1022 -0.2667
 5784W        W15264   6.248   2.632   6.943  0.0013 -0.3344 -0.0627
 5785W        W15265   1.323  10.030   7.451  0.0224  0.0355 -0.2497
 5786W        W15266  14.528   8.702   7.247 -0.3108 -0.0453  0.0346
 5787W        W15267   2.482  13.864   0.845  0.1036  0.3365  0.2694
 5788W        W15268  11.131  14.351   7.503 -0.0731 -0.1477  0.0913
 5789W        W15269  11.464   6.962   8.081 -0.4117 -0.1135 -0.1091
 5790W        W15270  14.672  15.054   0.352 -0.0131  0.0653  0.1187
 5791W        W15271   2.589  11.140   8.845 -0.2139  0.2019 -0.0488
 5792W        W15272  10.941  14.389   7.986  0.2553  0.3214  0.1086
 5793W        W15273  14.449  10.420   8.151 -0.0174  0.3062  0.0531
 5794W        W15274   6.991  12.327   1.581 -0.0520  0.1490  0.0853
 5795W        W15275   0.145   9.922   1.388 -0.0903 -0.1770 -0.1156
 5796W        W15276  12.362   1.361   8.685  0.4902  0.1652  0.1815
 5797W        W15277   0.698  15.052   8.598 -0.1094 -0.0490 -0.1251
 5798W        W15278  13.593   3.466   7.666 -0.2557  0.3302 -0.2077
 5799W        W15279   6.205  13.548   8.064 -0.1538  0.0391 -0.1279
 5800W        W15280   6.725   1.076   6.613  0.0222 -0.0530 -0.0176
 5801W        W15281   4.228  14.306   7.939 -0.1059 -0.0589  0.2265
 5802W        W15282  14.242  15.365   8.595 -0.0758 -0.1207 -0.0203
 5803W        W15283   0.913  10.711   1.264  0.2980  0.0888 -0.1854
 5804W        W15284   1.279  15.180   7.841  0.2758 -0.2447  0.5438
 5805W        W15285  15.015  11.570   1.535 -0.0070  0.0628  0.2850
 5806W        W15286  12.317   1.459   7.657 -0.2346  0.3305  0.1667
 5807W        W15287   7.710   8.859   8.101  0.0762 -0.0470  0.1814
 5808W        W15288   3.860   9.476   0.346  0.0763 -0.1987 -0.0831
 5809W        W15289   8.134  13.064   8.347  0.1980 -0.1054 -0.1575
 5810W        W15290  12.282   7.598   6.628  0.0564  0.0265 -0.1436
 5811W        W15291   7.496  14.673   1.679  0.0225  0.0182  0.2266
 5812W        W15292   3.547  11.297   2.720  0.1667  0.0423 -0.3725
 5813W        W15293  15.049   7.577   8.967 -0.0642 -0.0944 -0.1102
 5814W        W15294   1.006   8.320   7.219  0.0609 -0.1765 -0.0646
 5815W        W15295   7.586  12.495   8.679 -0.0753 -0.0592  0.1460
 5816W        W15296   3.059   0.168   0.018 -0.2051  0.0379  0.2719
 5817W        W15297   5.821  14.587   2.059 -0.2388 -0.0420  0.0780
 5818W        W15298   9.455  13.586   2.742  0.1033 -0.0942  0.1251
 5819W        W15299   5.656   2.484   1.435  0.2148  0.2199 -0.0248
 5820W        W15300   7.985   0.627   2.365 -0.1596  0.4836 -0.0809
 5821W        W15301   7.163   2.231   0.930 -0.0864  0.2701 -0.1970
 5822W        W15302   0.522   2.883   1.504 -0.0403 -0.0403 -0.2445
 5823W        W15303  14.851   3.502   7.416 -0.0011 -0.0651  0.0202
 5824W        W15304   8.615   0.559   7.329  0.0784 -0.1047 -0.1348
 5825W        W15305   8.376  10.414   7.748 -0.1804 -0.1999 -0.0284
 5826W        W15306  13.670   9.946   1.387 -0.2374  0.0456  0.0853
 5827W        W15307   9.164  11.711   8.720 -0.0735 -0.0140  0.0119
 5828W        W15308   8.731  13.720   8.869 -0.0595 -0.1523  0.1259
 5829W        W15309   6.009  14.347   1.108 -0.0478 -0.0691 -0.1246
 5830W        W15310   3.376  12.082   1.273  0.4670  0.0256 -0.1459
 5831W        W15311  10.610   4.333   1.113  0.0502  0.1508  0.0903
 5832W        W15312   4.269   9.681   8.696 -0.0485 -0.0747  0.0705
 5833W        W15313   7.950   8.136   0.092 -0.0489  0.0346 -0.0317
 5834W        W15314   4.098  11.111   1.205  0.0744  0.0479 -0.3732
 5835W        W15315   8.293   2.363   8.589  0.1377 -0.0999 -0.2630
 5836W        W15316   8.810  10.244   0.715  0.0566  0.0695 -0.1407
 5837W        W15317   5.150  12.186   7.742  0.4135  0.3649 -0.4678
 5838W        W15318   4.200   4.974   6.763 -0.3798 -0.3281  0.1685
 5839W        W15319  14.604   0.351   7.033  0.1374  0.5037 -0.2965
 5840W        W15320   9.378  15.301   8.842  0.1328  0.2137 -0.2867
 5841W        W15321  11.219   0.386   7.656 -0.0767 -0.0557  0.0806
 5842W        W15322  11.957  11.568   2.464 -0.0218 -0.0434 -0.0820
 5843W        W15323   6.630   9.561   2.521  0.0175  0.0526  0.2529
 5844W        W15324   6.987   8.598   7.397 -0.2665 -0.0033  0.0681
 5845W        W15325  10.404   8.129   0.492 -0.1017  0.0698  0.0923
 5846W        W15326   0.794  12.691   7.113 -0.1747 -0.0708 -0.1874
 5847W        W15327   2.721   9.347   0.899  0.5676 -0.1933  0.1676
 5848W        W15328  10.697  15.254   1.153 -0.2448  0.3127  0.2091
 5849W        W15329   1.348  11.956   6.951 -0.0535  0.2046  0.1955
 5850W        W15330  15.399   6.343   0.379 -0.1052  0.0479 -0.2646
 5851W        W15331  10.626  13.648   6.909  0.0710 -0.5102  0.2706
 5852W        W15332   4.236  10.767   0.247  0.1459  0.3815  0.0627
 5853W        W15333   0.305   2.741   7.062 -0.3782 -0.0044  0.1548
 5854W        W15334   9.672   0.934   7.231 -0.1113 -0.4080  0.2090
 5855W        W15335  13.304  13.474   8.842  0.0696  0.0563 -0.0943
 5856W        W15336  12.596  12.997   0.824 -0.1024 -0.1391  0.1110
 5857W        W15337  14.347  12.217   0.997 -0.0338  0.0380  0.0811
 5858W        W15338   8.239  12.774   7.121  0.1588 -0.1440 -0.0566
 5859W        W15339  14.507  10.032   1.468 -0.0925 -0.0150  0.0827
 5860W        W15340  11.840  14.209   0.176 -0.0708 -0.0053  0.2567
 5861W        W15341  13.992  11.487   1.391 -0.0414  0.0848 -0.0508
 5862W        W15342   3.978   8.908   1.492  0.2562  0.3075  0.0405
 5863W        W15343  11.626  12.987   7.323 -0.1902  0.0742 -0.0983
 5864W        W15344   1.170   4.115   2.262 -0.0685 -0.1215 -0.2691
 5865W        W15345   5.699   8.863   1.752 -0.0825 -0.2354 -0.1295
 5866W        W15346   3.808  15.452   7.992  0.1602 -0.6576 -0.0211
 5867W        W15347   6.505   5.189   0.238  0.2130 -0.1342  0.0166
 5868W        W15348   3.864   1.630   7.099 -0.0275 -0.3783  0.0394
 5869W        W15349   4.405  14.588   7.009  0.2706 -0.2041  0.0897
 5870W        W15350   7.395   3.061   8.562  0.1015 -0.0006  0.0056
 5871W        W15351  15.316   2.199   2.027  0.2841  0.3862 -0.3394
 5872W        W15352  14.690   4.322   0.009 -0.1714 -0.0795  0.3498
 5873W        W15353   3.540   0.967   8.320  0.2103  0.3906  0.3905
 5874W        W15354  12.322   0.133   7.116 -0.2056 -0.2810  0.0494
 5875W        W15355   6.647   4.736   7.008  0.1161  0.0663  0.3880
 5876W        W15356   6.309  14.179   1.513  0.1586 -0.2420 -0.0713
 5877W        W15357   4.807   7.395   1.567 -0.0531 -0.1848  0.0016
 5878W        W15358   0.969   1.588   1.584  0.0800 -0.2266 -0.0062
 5879W        W15359   3.669   9.514   8.119 -0.1590  0.3788 -0.0041
 5880W        W15360  13.060   3.470   8.087  0.0170 -0.0530 -0.2595
 5881W        W15361   0.902   7.369   1.908 -0.2208  0.0407  0.0903
 5882W        W15362   2.397  12.783   0.713 -0.2432 -0.0554  0.2636
 5883W        W15363   5.302  11.720   8.995 -0.2433  0.0927 -0.2934
 5884W        W15364  15.309   4.780   8.593 -0.0647 -0.3586 -0.1285
 5885W        W15365   8.325   1.989   1.172  0.0174 -0.1779 -0.0223
 5886W        W15366   2.044   6.379   0.881  0.2038  0.2185  0.1432
 5887W        W15367  13.440   2.292   0.317  0.1566  0.2163 -0.2070
 5888W        W15368   6.734   2.892   1.217 -0.1606 -0.2451 -0.3477
 5889W        W15369  15.265   1.517   0.378  0.0198 -0.1787  0.1976
 5890W        W15370   6.734   1.381   2.821 -0.2086 -0.0963  0.0999
 5891W        W15371  15.179   0.128   2.296  0.2079  0.2685 -0.1486
 5892W        W15372   0.364  15.180   0.599  0.3653 -0.0238 -0.1308
 5893W        W15373   0.753  14.267   7.777  0.2687 -0.2241 -0.1436
 5894W        W15374   2.596   4.472   0.089  0.0584 -0.2525 -0.0451
 5895W        W15375   0.912   6.743   1.221 -0.0986 -0.0337  0.1864
 5896W        W15376   1.848   3.640   2.208  0.0140 -0.1936  0.1721
 5897W        W15377   2.788   2.502   0.734  0.0962 -0.2891  0.3621
 5898W        W15378   3.931   1.240   7.344 -0.1509  0.0475 -0.2313
 5899W        W15379   2.999  12.385   1.301  0.1851  0.0018 -0.1624
 5900W        W15380   4.313   0.517   8.739 -0.2472  0.1107  0.0737
 5901W        W15381   3.191  15.100   0.061 -0.0167  0.0735 -0.0407
 5902W        W15382  14.284   4.142   8.071 -0.2061  0.3012 -0.1248
 5903W        W15383   3.669   1.316   8.621 -0.0975  0.2242 -0.1011
 5904W        W15384   2.743   2.661   0.223 -0.1402 -0.0458  0.3269
 5905W        W15385   4.806   9.028   1.797 -0.0050  0.2716  0.1517
 5906W        W15386   8.937  14.952   1.091 -0.1922 -0.0133 -0.0416
 5907W        W15387   8.357   1.416   7.323 -0.0757 -0.1962  0.0234
 5908W        W15388   3.853   4.783   0.394  0.1299  0.2356  0.1535
 5909W        W15389   3.160   3.916   1.598  0.3328  0.1643 -0.0492
 5910W        W15390   1.806  14.313   2.631  0.1353 -0.0961 -0.0329
 5911W        W15391   5.792   1.763   8.984  0.0712 -0.0754  0.1939
 5912W        W15392   3.295  14.033   1.517  0.6349  0.1591  0.1075
 5913W        W15393   1.796   5.381   2.261 -0.3151 -0.0664  0.3542
 5914W        W15394   2.580   2.327   2.957 -0.1566 -0.2460  0.0847
 5915W        W15395  10.870  13.643   6.422  0.1491 -0.0033 -0.2108
 5916W        W15396   2.775  11.495   7.625 -0.2747 -0.0651  0.1582
 5917W        W15397   1.116   0.703   0.039 -0.3129 -0.3653 -0.0866
 5918W        W15398   1.475   1.596   1.618 -0.2983  0.0343 -0.0973
 5919W        W15399  12.498   3.054   6.856  0.0010  0.2417  0.1182
 5920W        W15400   6.184   5.355   7.952  0.0999 -0.2993 -0.1604
 5921W        W15401   4.920  13.337   8.624  0.1329 -0.2619  0.1540
 5922W        W15402   3.790   2.024   0.319 -0.0469 -0.0402 -0.0150
 5923W        W15403   1.034  10.656   8.531  0.0063  0.2564  0.0352
 5924W        W15404   9.895  11.406   8.547 -0.0493 -0.1356 -0.1103
 5925W        W15405   2.732   0.944   1.822  0.0389  0.0961 -0.2364
 5926W        W15406   2.513   5.413   0.721 -0.0866  0.4488 -0.0818
 5927W        W15407   4.951  10.386   0.345  0.2524  0.0813  0.0542
 5928W        W15408   2.629   1.686   7.886 -0.2710  0.1483  0.0035
 5929W        W15409   0.453   1.589   7.611 -0.3209  0.2494 -0.2861
 5930W        W15410   2.835   3.231   7.766 -0.1070 -0.0317  0.0108
 5931W        W15411   0.387   1.169   0.799 -0.3356  0.0289 -0.1665
 5932W        W15412   0.902   5.178   1.092  0.0517 -0.0482 -0.3765
 5933W        W15413  15.392   1.223   1.260 -0.0392 -0.1949  0.0314
 5934W        W15414   0.057   2.516   2.370  0.3473 -0.0125  0.0726
 5935W        W15415   2.629  12.228   8.753 -0.3439 -0.1171  0.1011
 5936W        W15416   7.786   4.126   0.480  0.0853 -0.0687 -0.0160
 5937W        W15417   5.291   5.581   0.617  0.1465  0.0093 -0.1768
 5938W        W15418  14.129   9.292   0.669  0.1105  0.1041  0.3614
 5939W        W15419  13.648   3.671   2.604  0.1518  0.1690 -0.1000
 5940W        W15420   3.959   3.098   0.091  0.0025 -0.0417 -0.0037
 5941W        W15421   3.066  11.904   7.543 -0.0062  0.0935  0.1582
 5942W        W15422   6.534   1.888   7.274 -0.1365  0.0263  0.2558
 5943W        W15423   3.955  14.502   2.132  0.2193  0.0934 -0.3304
 5944W        W15424   6.224  12.815   1.833 -0.2178  0.0647 -0.1326
 5945W        W15425   2.153  11.545   7.332 -0.1869  0.2918  0.0668
 5946W        W15426   5.492   2.973   7.197  0.0743 -0.3116  0.0215
 5947W        W15427   0.203   2.524   0.849 -0.4232  0.0812 -0.0314
 5948W        W15428   2.502  14.131   0.432  0.2462 -0.0610  0.2751
 5949W        W15429  15.273   4.686   6.421  0.0061 -0.0763 -0.2450
 5950W        W15430   2.078   5.392   1.831 -0.4668  0.0711  0.0931
 5951W        W15431  14.582   3.168   1.441  0.2012  0.2843 -0.2060
 5952W        W15432   1.955   1.865   1.519  0.1177  0.0663  0.3840
 5953W        W15433  13.492   2.181   0.796 -0.1157 -0.0938  0.0985
 5954W        W15434   3.796  14.799   1.035  0.0038  0.2308  0.2273
 5955W        W15435   7.176   1.299   8.029  0.0633 -0.0072 -0.1727
 5956W        W15436   3.381   3.318   0.063 -0.1960 -0.1212  0.1086
 5957W        W15437   3.638   6.389   7.040  0.4029 -0.0200 -0.1143
 5958W        W15438   1.125   7.587   8.362  0.0246  0.1907 -0.1209
 5959W        W15439   1.708   5.731   7.561  0.0739 -0.1936 -0.2204
 5960W        W15440   6.162  13.716   1.671  0.2945  0.1767 -0.0704
 5961W        W15441  13.354  14.933   7.060 -0.0648  0.1725 -0.0226
 5962W        W15442  15.418   1.715   7.898 -0.1181  0.1784  0.0703
 5963W        W15443   4.818  11.592   8.353 -0.3340  0.0739 -0.1065
 5964W        W15444  14.259   8.977   1.198  0.1973  0.2383  0.1272
 5965W        W15445   3.530   0.663   1.750 -0.0958  0.0648  0.0002
 5966W        W15446  11.164   0.068   8.074 -0.1134 -0.1401 -0.1270
 5967W        W15447   3.861   1.198   2.602 -0.2598 -0.1097 -0.1343
 5968W        W15448  11.877   2.631   0.861 -0.0482 -0.1425 -0.2447
 5969W        W15449   0.415   0.762   6.988 -0.0888  0.0213 -0.1294
 5970W        W15450   0.793  10.663   0.154 -0.1285 -0.0644 -0.2161
 5971W        W15451   3.405   1.584   0.978  0.0964 -0.0407  0.1705
 5972W        W15452  11.459  10.582   1.367  0.2104  0.1507 -0.1640
 5973W        W15453   1.511   1.297   8.385 -0.1158 -0.0107  0.2876
 5974W        W15454   6.604  15.251   2.465 -0.1883 -0.2024 -0.3405
 5975W        W15455   1.581  10.941   0.980  0.0287  0.1146 -0.0165
 5976W        W15456  10.525   4.587   6.887  0.0460 -0.1840  0.0065
 5977W        W15457   0.875   0.877   8.769  0.1344  0.0505  0.3001
 5978W        W15458   5.403   8.815   6.985  0.2291 -0.0415 -0.2860
 5979W        W15459  15.206  10.831   6.977  0.1299  0.1694  0.1180
 5980W        W15460   6.086   5.662   7.513  0.0169  0.0687 -0.0229
 5981W        W15461   1.044  14.331   0.162  0.0634 -0.1465  0.0504
 5982W        W15462  10.936   7.705   7.758  0.1441  0.1108 -0.2068
 5983W        W15463  12.394   3.121   0.788  0.0605 -0.2498  0.1381
 5984W        W15464   6.523   4.594   7.610 -0.2277  0.2689  0.1278
 5985W        W15465   0.471   6.302   2.596 -0.1313  0.1846 -0.1929
 5986W        W15466   2.304   5.821   9.095 -0.4629 -0.0329  0.3270
 5987W        W15467   7.779   2.071   7.414  0.0588 -0.0704  0.0048
 5988W        W15468  14.381  15.189   7.262 -0.2321  0.3692 -0.0211
 5989W        W15469  11.524  11.723   2.700  0.2179  0.2839  0.0113
 5990W        W15470  15.205   2.029   8.678 -0.0208  0.0558  0.0261
 5991W        W15471  14.503   0.633   8.244  0.2010  0.1042 -0.0276
 5992W        W15472   2.369   1.966   8.752  0.5603 -0.0607 -0.1125
 5993W        W15473   4.814  14.905   6.428 -0.2023 -0.4446 -0.0159
 5994W        W15474  14.247   2.119   0.150 -0.2042  0.0417 -0.0459
 5995W        W15475   6.463   5.496   7.188 -0.2590 -0.2430  0.1563
 5996W        W15476   2.609   3.792   2.028 -0.0151 -0.0299  0.0296
 5997W        W15477   4.244   2.562   1.443  0.2116 -0.0285  0.1851
 5998W        W15478   1.141   4.133   7.905  0.0499 -0.0932 -0.0147
 5999W        W15479  12.601   2.571   6.895 -0.1062  0.1778 -0.0057
 6000W        W15480   0.957  15.089   8.197 -0.4232  0.0232 -0.0167
 6001W        W15481   0.784   1.481   8.057 -0.0552  0.0222  0.3626
 6002W        W15482   2.906   4.631   7.532 -0.0487  0.0075 -0.0388
 6003W        W15483   3.058   1.766   8.947  0.1176  0.1329 -0.0348
 6004W        W15484   0.477   3.192   8.693  0.0059  0.0472 -0.0550
 6005W        W15485  14.967   2.454   0.286 -0.1142  0.6263 -0.0825
 6006W        W15486   4.837   4.425   1.788 -0.3479  0.1100 -0.2353
 6007W        W15487   3.946   6.796   8.943  0.1465  0.0752 -0.1024
 6008W        W15488   2.596   0.945   9.070  0.2880 -0.1809  0.3527
 6009W        W15489   4.589   3.140   7.598  0.1758  0.0273  0.2097
 6010W        W15490   4.370   5.216   8.889  0.0487 -0.3053  0.0968
 6011W        W15491   3.641  12.491   0.025  0.0273  0.0374  0.0378
 6012W        W15492   5.802   0.105   1.338 -0.0122 -0.1714  0.1560
 6013W        W15493   0.631   1.182   0.318 -0.0063  0.0633  0.2922
 6014W        W15494   5.881   3.334   8.342  0.1975 -0.0367 -0.2704
 6015W        W15495   1.793   3.168   6.351  0.3949 -0.0257  0.1112
 6016W        W15496   4.769   5.832   7.853  0.1370  0.0119  0.1034
 6017W        W15497   7.596   2.539   1.067 -0.0031  0.1004  0.3202
 6018W        W15498   5.574  12.461   0.216  0.3537 -0.0212  0.1045
 6019W        W15499   3.728   1.819   1.303 -0.0132 -0.0329  0.0944
 6020W        W15500   1.333   8.882   8.934  0.2956  0.0727  0.1253
 6021W        W15501   2.110   0.537   7.102  0.0962 -0.0148  0.1384
 6022W        W15502   6.412  15.421   7.892  0.1667 -0.1042  0.0142
 6023W        W15503   2.691   4.526   2.763  0.4701  0.0573 -0.1481
 6024W        W15504  11.454   8.695   1.369 -0.1776 -0.0922 -0.2602
 6025W        W15505   5.044  14.827   7.821 -0.1889 -0.0411 -0.0072
 6026W        W15506  13.260   2.063   1.259  0.1031 -0.1928 -0.0289
 6027W        W15507  14.146   2.435   1.027 -0.1681  0.0914  0.2743
 6028W        W15508   7.316  10.978   1.751  0.2893 -0.0200 -0.1804
 6029W        W15509  11.649  11.195   1.074 -0.0847  0.2231  0.0838
 6030W        W15510  12.180  14.931   1.870  0.0961  0.1637 -0.0919
 6031W        W15511  12.480  13.981   1.840  0.1436  0.3447  0.1120
 6032W        W15512  14.779   1.445   7.975  0.0313  0.3120  0.2326
 6033W        W15513   0.211  15.373   6.648  0.0790  0.1541 -0.2822
 6034W        W15514   3.074  14.347   1.904 -0.0043  0.0613 -0.0683
 6035W        W15515   4.896   9.040   7.861 -0.1734  0.0385  0.1159
 6036W        W15516   4.733   5.585   7.223 -0.0507 -0.4772 -0.0112
 6037W        W15517  12.479   3.281   8.153 -0.2025 -0.3440 -0.0165
 6038W        W15518  14.906  13.041   8.367 -0.1340 -0.0346  0.1336
 6039W        W15519   1.629   1.084   1.705  0.1283  0.1800  0.0160
 6040W        W15520   1.829   4.612   1.381  0.0576  0.0810  0.2642
 6041W        W15521  13.058  13.116   8.493 -0.1720 -0.0771  0.1129
 6042W        W15522  10.475   5.399   0.531  0.0796 -0.0083 -0.1063
 6043W        W15523   4.877   8.122   9.036 -0.1504  0.1224 -0.2337
 6044W        W15524   1.644   0.254   7.223 -0.0292  0.0409  0.0651
 6045W        W15525   1.064  11.124   8.860 -0.2526  0.1291 -0.0691
 6046W        W15526   0.189  13.899   0.397 -0.1678 -0.0637 -0.2218
 6047W        W15527  14.268  14.824   7.902 -0.1906  0.2154 -0.0352
 6048W        W15528   0.104   5.817   0.359  0.0955 -0.0509 -0.0748
 6049W        W15529   4.159   2.120   2.109  0.0432  0.1340 -0.3723
 6050W        W15530   1.922   6.535   7.070 -0.0408 -0.3963  0.0563
 6051W        W15531  12.670  14.714   7.623  0.0091 -0.0890 -0.3268
 6052W        W15532   2.102   5.647   0.410  0.1367  0.1337 -0.0366
 6053W        W15533  14.114  11.698   9.064  0.1317 -0.0804  0.2547
 6054W        W15534   2.034   4.049   7.751  0.0752  0.3381 -0.3374
 6055W        W15535   5.675   2.978   1.291 -0.2676  0.1077  0.3376
 6056W        W15536   3.757   4.624   0.868  0.1380 -0.2305 -0.3183
 6057W        W15537  13.120   2.696   0.530  0.0032  0.1733 -0.0680
 6058W        W15538  10.116   1.165   1.600  0.0192 -0.1900 -0.0830
 6059W        W15539   1.208  14.297   7.057 -0.3718 -0.1913  0.3177
 6060W        W15540   4.678   8.432   8.494  0.0842 -0.2270  0.1093
 6061W        W15541  14.472  14.882   1.818  0.1691 -0.1627 -0.0875
 6062W        W15542   7.416   2.067   0.170 -0.1489 -0.0680  0.0316
 6063W        W15543   1.295   0.005   1.197  0.0373 -0.1770 -0.2463
 6064W        W15544   3.823   4.146   7.922 -0.0206 -0.1263  0.0304
 6065W        W15545   0.993  15.333   1.536  0.0720  0.4989 -0.0683
 6066W        W15546   7.608  15.447   1.223 -0.0907 -0.0873 -0.2390
 6067W        W15547   3.815   4.275   2.368  0.0267 -0.1610 -0.0055
 6068W        W15548   6.093   7.089   1.411  0.0081  0.1324  0.4514
 6069W        W15549   3.152   2.633   8.713 -0.2264 -0.0368 -0.1592
 6070W        W15550   4.439  15.038   2.673  0.1290 -0.0575 -0.0232
 6071W        W15551  14.065   2.220   2.434  0.3665 -0.0988  0.0121
 6072W        W15552   4.300   0.836   7.325  0.1878  0.0340  0.0946
 6073W        W15553   4.947   6.827   9.081 -0.1558 -0.0487  0.1640
 6074W        W15554   3.103   3.887   2.091  0.0677 -0.1497  0.5000
 6075W        W15555   6.894  13.458   0.929 -0.1709  0.3580 -0.2661
 6076W        W15556   4.819   1.263   2.350 -0.1639  0.0739  0.2941
 6077W        W15557  12.773   4.839   7.397  0.0258  0.1945  0.1091
 6078W        W15558   2.222   0.543   1.285  0.1400  0.1498  0.0225
 6079W        W15559   6.073  11.858   2.363 -0.1867 -0.1971 -0.1020
 6080W        W15560  11.726   3.949   7.528  0.1579  0.1366 -0.2281
 6081W        W15561   7.217   1.273   2.170 -0.3389 -0.3211  0.1410
 6082W        W15562   9.499   6.723   8.255  0.0112 -0.1319  0.0795
 6083W        W15563   3.846   5.240   1.634  0.0834  0.5607 -0.2380
 6084W        W15564   0.775  13.779   8.609  0.0236  0.0839  0.1293
 6085W        W15565   7.380  12.681   7.349  0.0339  0.3916 -0.1519
 6086W        W15566   4.512   1.219   0.547 -0.1944 -0.1543  0.3181
 6087W        W15567   2.913   2.207   2.058 -0.0052 -0.2791 -0.0213
 6088W        W15568   7.150   0.777   0.865 -0.3230  0.2179  0.0207
 6089W        W15569  13.198   4.975   9.013 -0.2544 -0.1630  0.1840
 6090W        W15570   3.633  14.934   0.224 -0.0445 -0.0814 -0.1050
 6091W        W15571  11.221   8.631   6.511  0.0783  0.1990 -0.3487
 6092W        W15572   5.530   2.083   0.208 -0.0785  0.2005 -0.0563
 6093W        W15573   2.554   4.427   8.586  0.2808 -0.1264  0.3536
 6094W        W15574   5.913   1.869   8.512  0.1804  0.0045 -0.0120
 6095W        W15575   6.311   3.835   0.809  0.0960 -0.3357 -0.1828
 6096W        W15576   4.601   2.148   8.062 -0.0882 -0.3710  0.0220
 6097W        W15577   7.292   0.068   0.348 -0.0241 -0.1124  0.3149
 6098W        W15578   6.154   2.186   1.638  0.2278  0.0423  0.4393
 6099W        W15579   5.198   2.240   2.497 -0.1648  0.1606 -0.4079
 6100W        W15580   3.720   5.403   1.159  0.5526  0.2138  0.0845
 6101W        W15581  10.789   7.833   7.300 -0.1082  0.3149 -0.1253
 6102W        W15582   2.885   1.914   1.685 -0.1296  0.2074  0.0798
 6103W        W15583   9.730  15.171   1.178 -0.0237  0.1588 -0.1816
 6104W        W15584   6.228   4.196   7.578 -0.3127  0.2082 -0.0671
 6105W        W15585   8.856   7.919   7.677  0.1141 -0.0576 -0.1780
 6106W        W15586   4.915   0.079   6.812  0.2341  0.0830 -0.3406
 6107W        W15587   2.487  13.146   0.268 -0.3260 -0.2244 -0.0827
 6108W        W15588   2.161   2.217   2.062  0.2739 -0.1645 -0.0720
 6109W        W15589   3.898   2.904   1.227 -0.3589 -0.1588  0.0735
 6110W        W15590   3.165   1.722   2.110 -0.0254 -0.2769  0.1044
 6111W        W15591   2.877   2.233   8.933  0.3047  0.0113 -0.0289
 6112W        W15592   4.824  13.282   8.112  0.0704 -0.0962 -0.2122
 6113W        W15593   8.899  13.750   1.745  0.2599 -0.3062 -0.0241
 6114W        W15594   6.558   2.556   3.219 -0.1135  0.1668  0.1225
 6115W        W15595   5.101   2.401   0.243 -0.0200  0.3463 -0.2247
 6116W        W15596   4.248  13.712   8.232 -0.2102 -0.0977 -0.0202
 6117W        W15597   6.712   8.390   6.568  0.1282 -0.0362 -0.1542
 6118W        W15598   2.600   2.165   8.100  0.0873  0.1635  0.1279
 6119W        W15599   8.027  15.152   7.247 -0.2195 -0.2398 -0.1283
 6120W        W15600   8.908  13.385   2.068  0.2739  0.1902  0.0096
 6121W        W15601   1.273   7.073   1.954 -0.0093 -0.0330  0.2433
 6122W        W15602   1.971  13.369   8.274 -0.0138  0.4857  0.2385
 6123W        W15603   3.848  14.980   1.892  0.1450  0.0260  0.1015
 6124W        W15604   5.697  10.154   0.929  0.1663  0.2797  0.1909
 6125W        W15605   3.220   9.963   8.559  0.0754  0.2217 -0.0356
 6126W        W15606  10.665  14.397   1.474  0.0483 -0.1247 -0.2189
 6127W        W15607  12.261   4.663   7.337 -0.2398  0.2324 -0.0858
 6128W        W15608   7.524   4.369   1.297  0.0200 -0.0124  0.1814
 6129W        W15609   9.948   3.805   1.880  0.0689 -0.0859  0.1160
 6130W        W15610   3.149   2.429   8.104  0.2369 -0.0016  0.0456
 6131W        W15611   3.969   8.561   7.777  0.0295 -0.2622 -0.1499
 6132W        W15612   3.645   5.237   0.260 -0.3103  0.1125 -0.0973
 6133W        W15613  10.704   2.434   2.786  0.2890  0.0241  0.1501
 6134W        W15614   1.217  14.722   0.528 -0.0980  0.2345  0.0302
 6135W        W15615   1.206  14.768   1.054  0.0494 -0.0856 -0.3044
 6136W        W15616   5.675   2.967   0.727 -0.0117  0.0596 -0.1867
 6137W        W15617   2.400   1.357   2.039  0.1593 -0.0595 -0.1741
 6138W        W15618   9.248   9.146   1.103  0.2016  0.1023  0.1996
 6139W        W15619   7.926   3.493   6.732  0.0786  0.1632  0.2092
 6140W        W15620   9.874   9.827   7.412 -0.0489  0.1286  0.3004
 6141W        W15621   1.719   2.871   8.927 -0.2685  0.0279  0.2095
 6142W        W15622   5.088  13.487   0.004  0.0811 -0.1773  0.1006
 6143W        W15623   0.020   0.332   1.612  0.1597 -0.2961  0.0495
 6144W        W15624   7.068   4.970   2.289  0.1278 -0.2359  0.0750
 6145W        W15625   4.459   0.820   0.169  0.1310  0.1929  0.0444
 6146W        W15626   0.459   1.163   8.875 -0.0518  0.0225  0.0587
 6147W        W15627   5.537   1.362   2.394 -0.2010  0.1534  0.1146
 6148W        W15628   5.632   8.598   7.385  0.2801  0.0948 -0.0670
 6149W        W15629   4.538   1.167   8.118  0.0688 -0.1326 -0.0183
 6150W        W15630   4.820   1.948   0.623  0.0052  0.3851  0.0767
 6151W        W15631  11.684   1.068   0.949  0.3615 -0.0319  0.2302
 6152W        W15632   3.205   2.501   1.106 -0.0598  0.1542  0.1537
 6153W        W15633   6.294  15.436   1.247  0.2353  0.0011 -0.0606
 6154W        W15634   3.727   0.533   8.091 -0.0846 -0.0303 -0.0427
 6155W        W15635   5.393   4.943   0.099 -0.0724 -0.0105 -0.1836
 6156W        W15636   3.784  15.253   8.920 -0.0145 -0.4060  0.2997
 6157W        W15637   2.904  10.064   8.130 -0.1396 -0.2213 -0.0110
 6158W        W15638  10.573   3.640   1.357  0.1694 -0.0693  0.0492
 6159W        W15639   8.145  13.214   0.635  0.1476 -0.0757  0.1323
 6160W        W15640   5.687   3.033   8.751  0.1536  0.0572  0.3192
 6161W        W15641   5.072   6.758   8.301 -0.0015  0.3273 -0.0463
 6162W        W15642   1.614   0.825   7.874  0.1535 -0.0606  0.3534
 6163W        W15643  11.725   6.929   1.965 -0.2581  0.0036 -0.3379
 6164W        W15644   6.645   4.156   7.918 -0.1174  0.0949 -0.0393
 6165W        W15645   4.804   2.425   8.909  0.0552  0.0189  0.1135
 6166W        W15646   4.280  14.641   8.481 -0.0868  0.0920 -0.2173
 6167W        W15647   2.229   5.884   0.884 -0.0132  0.1081 -0.1700
 6168W        W15648   5.329   5.253   7.333  0.3446  0.2055 -0.1099
 6169W        W15649   3.574  11.683   2.328  0.2356  0.2198 -0.0203
 6170W        W15650   6.328   8.288   8.753 -0.4099  0.0801  0.0799
 6171W        W15651   8.604   0.770   9.050  0.3352 -0.2204  0.0893
 6172W        W15652   8.639  13.169   2.464 -0.1432 -0.2942  0.1856
 6173W        W15653  10.731  14.886   7.847  0.1907  0.2760 -0.0175
 6174W        W15654   7.561   0.682   8.792 -0.5377  0.2451  0.0685
 6175W        W15655   6.721   6.163   7.146  0.2087 -0.2362  0.0059
 6176W        W15656   3.147   5.815   7.681  0.1929  0.0094  0.2722
 6177W        W15657  10.555  11.902   7.857  0.0694 -0.2871  0.0930
 6178W        W15658   4.669  14.211   0.806 -0.1577 -0.0417  0.1610
 6179W        W15659   3.108   2.425   1.655  0.0421 -0.2385  0.1213
 6180W        W15660   4.277   8.037   3.089  0.1614 -0.0208 -0.1053
 6181W        W15661   3.560   2.002   2.201 -0.0117  0.2250  0.1758
 6182W        W15662   4.309  13.060   0.287  0.3352 -0.2189  0.3740
 6183W        W15663   3.398   6.671   0.701 -0.1307  0.2020  0.1198
 6184W        W15664   4.960   3.258   7.908  0.1147 -0.2677 -0.0070
 6185W        W15665   7.909   3.467   6.252 -0.0048  0.0449 -0.0874
 6186W        W15666   5.744  14.121   8.858  0.2232  0.0882 -0.3613
 6187W        W15667   2.586  10.265   0.005 -0.0002 -0.2566  0.2433
 6188W        W15668   9.305   2.471   0.351 -0.0381 -0.1007 -0.3740
 6189W        W15669   2.922   0.164   1.787 -0.2215  0.2058 -0.0398
 6190W        W15670   7.062   5.039   1.594  0.2193 -0.1034  0.3968
 6191W        W15671   4.603  14.145   2.699  0.0449 -0.0676  0.0649
 6192W        W15672  13.293   2.909   7.307 -0.0924 -0.3144 -0.0059
 6193W        W15673   5.941   0.139   1.780  0.1705 -0.4358 -0.4592
 6194W        W15674   3.725   2.290   1.137 -0.0116  0.2096 -0.0969
 6195W        W15675   1.331   1.691   8.738  0.1842  0.1884  0.1445
 6196W        W15676   5.585   0.897   7.092  0.1629  0.0860 -0.1303
 6197W        W15677   9.526   5.805   7.470  0.2202  0.2113  0.2195
 6198W        W15678  11.035  15.390   0.410 -0.0571 -0.0167  0.1250
 6199W        W15679   5.465   2.733   2.257 -0.1492  0.0966 -0.0276
 6200W        W15680   1.332  14.822   2.386  0.0960  0.1069  0.2496
 6201W        W15681   7.287   8.740   8.943 -0.0429  0.1478  0.0900
 6202W        W15682   8.755  13.349   7.716  0.0956  0.0938 -0.0963
 6203W        W15683   3.265  14.722   8.390 -0.0315 -0.4382 -0.0688
 6204W        W15684   3.181  12.917   1.241  0.0025 -0.0203  0.2794
 6205W        W15685   6.765   0.206   0.262 -0.1899  0.1768  0.0135
 6206W        W15686   6.328   3.342   2.486  0.2441 -0.1111 -0.1229
 6207W        W15687   4.140  11.035   7.775  0.1211 -0.0719 -0.2329
 6208W        W15688   5.402   4.099   1.954 -0.2135 -0.0074 -0.1000
 6209W        W15689  11.807  14.765   2.219  0.1436  0.3695 -0.0451
 6210W        W15690  14.735  15.324   1.734 -0.0177 -0.0603 -0.1097
 6211W        W15691   2.562   5.229   0.194  0.2866 -0.1105 -0.0914
 6212W        W15692   2.372  14.646   0.413 -0.2938  0.2076 -0.1414
 6213W        W15693   4.176   0.391   7.575 -0.0735 -0.1560 -0.2556
 6214W        W15694   4.760   6.231   1.586  0.1654 -0.1956 -0.0483
 6215W        W15695   5.389  14.540   2.259 -0.2160 -0.0171 -0.1206
 6216W        W15696  13.855   3.102   7.309 -0.2279 -0.1583 -0.0942
 6217W        W15697   2.690  15.384   2.394  0.2357  0.2828 -0.0949
 6218W        W15698   7.285   1.448   8.798 -0.0380 -0.0952 -0.5889
 6219W        W15699   7.552   1.813   8.461 -0.0803  0.1214 -0.2659
 6220W        W15700   1.634   1.703   1.101 -0.0121  0.0436 -0.0726
 6221W        W15701   9.628   2.403   2.368  0.1198 -0.0003  0.1524
 6222W        W15702   3.540   2.190   8.123 -0.0657  0.1331  0.2171
 6223W        W15703   2.716   8.126   1.373  0.0668  0.0897 -0.1423
 6224W        W15704   6.308  14.734   8.952 -0.0935  0.0761 -0.2083
 6225W        W15705   4.807   2.770   7.349 -0.0303  0.1819  0.1368
 6226W        W15706   8.933   2.507   7.240 -0.1509 -0.0752  0.1310
 6227W        W15707   8.202   0.361   8.175  0.2022  0.2105 -0.3206
 6228W        W15708   6.937  14.478   7.030  0.1677 -0.0516 -0.1783
 6229W        W15709   4.809   4.368   8.352  0.2371 -0.1506  0.1389
 6230W        W15710   7.130   0.070   8.351 -0.1569  0.0188 -0.0391
 6231W        W15711   8.145   1.835   0.769 -0.3702  0.3847 -0.1397
 6232W        W15712   1.408  10.542   7.696 -0.1282 -0.1793 -0.1836
 6233W        W15713   4.021  10.451   7.461  0.1258 -0.0606 -0.0952
 6234W        W15714   8.847   0.720   8.213 -0.2736 -0.4173 -0.0363
 6235W        W15715   3.650   3.319   1.019 -0.0864  0.1482  0.1971
 6236W        W15716   5.827   2.010   0.695  0.2236  0.1913  0.0462
 6237W        W15717   8.150   9.180   7.142 -0.1792  0.0989 -0.1151
 6238W        W15718   6.937  12.290   3.120 -0.0401  0.0238  0.1960
 6239W        W15719   8.011   0.310   2.010 -0.1660  0.2062  0.3008
 6240W        W15720   2.240   2.615   2.483  0.4817  0.0009  0.1190
 6241W        W15721   2.146   5.947   7.212  0.0164  0.3322 -0.1201
 6242W        W15722   2.187   3.243   0.496 -0.0939 -0.2861 -0.2765
 6243W        W15723   0.426   2.975   1.018  0.4341 -0.3357  0.0973
 6244W        W15724   1.630  15.182   2.217  0.0088  0.0745 -0.0532
 6245W        W15725  14.811  14.909   8.510  0.0294  0.1502  0.2211
 6246W        W15726   5.916  15.334   7.836 -0.1145 -0.0847  0.1632
 6247W        W15727   0.994   1.935   7.972 -0.3084 -0.2568 -0.0920
 6248W        W15728   7.613   2.620   7.602 -0.1222 -0.0213  0.1448
 6249W        W15729   4.972   0.614   0.108  0.2931 -0.2343  0.0267
 6250W        W15730   6.846   1.050   1.759  0.1924 -0.3451  0.1599
 6251W        W15731   1.922   0.420   8.169  0.0518 -0.1463  0.3214
 6252W        W15732   1.267   4.846   1.734  0.1819  0.0887  0.3033
 6253W        W15733  13.914  10.792   0.112  0.0196  0.3705 -0.0793
 6254W        W15734   5.606   2.157   7.607 -0.0177  0.2167  0.0593
 6255W        W15735   6.196  13.666   7.522 -0.0995  0.4292  0.0305
 6256W        W15736   7.982  15.358   1.664 -0.0696 -0.2758  0.1376
 6257W        W15737   5.315   4.263   8.300  0.0209 -0.0458 -0.1550
 6258W        W15738  10.647   7.076   1.191  0.3703  0.2051 -0.0018
 6259W        W15739   1.660   5.296   1.484 -0.6448 -0.0794  0.3833
 6260W        W15740   9.368   1.176   7.569 -0.1137  0.0987  0.1894
 6261W        W15741   6.127  11.172   7.355 -0.0343 -0.1006 -0.2134
 6262W        W15742   5.331   0.596   8.829  0.0311  0.0790 -0.1307
 6263W        W15743   1.342   1.479   0.732 -0.0157  0.0551  0.2387
 6264W        W15744   4.290   2.068   0.545  0.2743  0.2229 -0.0192
 6265W        W15745   3.750   1.291   1.209 -0.2678  0.1375 -0.2424
 6266W        W15746   7.091   0.169   1.299  0.2396  0.1134  0.0158
 6267W        W15747  14.482  13.874   1.879  0.1730 -0.0701 -0.2909
 6268W        W15748   8.242   3.020   2.363  0.0823  0.0602 -0.2168
 6269W        W15749  10.029   3.510   7.515 -0.0785 -0.0376 -0.0854
 6270W        W15750   0.644  13.167   2.662 -0.1699 -0.1345  0.0133
 6271W        W15751  11.166   2.796   7.569  0.3550 -0.2790  0.0469
 6272W        W15752   2.737   4.950   0.676 -0.0993 -0.2963  0.0306
 6273W        W15753   6.254   3.090   2.924  0.0327 -0.0153 -0.2074
 6274W        W15754   7.463  14.346   7.007 -0.1407 -0.1410  0.0652
 6275W        W15755   7.385   8.382   1.997 -0.0685 -0.2136 -0.1126
 6276W        W15756  10.900   8.087   8.791  0.1876  0.0964  0.0656
 6277W        W15757   4.574  15.113   0.281  0.0656 -0.3223  0.0057
 6278W        W15758   8.315   2.946   1.484 -0.0545  0.0038  0.2544
 6279W        W15759  10.564   2.007   1.775 -0.1548  0.1310 -0.1527
 6280W        W15760   4.770  12.237   0.999  0.1446 -0.2091  0.0993
 6281W        W15761   1.344   2.537   9.018  0.0701  0.1467  0.3604
 6282W        W15762   3.980   1.609   7.694  0.6629 -0.3177 -0.0672
 6283W        W15763   7.441   1.613   1.294  0.0882  0.0218  0.3926
 6284W        W15764  11.859   0.642   2.284  0.0281 -0.0611 -0.0116
 6285W        W15765   8.328   1.524   1.477 -0.0107 -0.4567  0.3556
 6286W        W15766   8.156   5.735   7.707  0.1809 -0.0785 -0.0284
 6287W        W15767   8.381   2.499   1.219 -0.0646  0.1959 -0.3164
 6288W        W15768  12.743   6.904   0.247  0.4268  0.2473 -0.0145
 6289W        W15769   4.615  12.643   0.066  0.0692 -0.2148  0.3518
 6290W        W15770   6.939  14.786   1.602  0.1872  0.2340  0.2276
 6291W        W15771   6.487   1.534   0.135 -0.1374  0.3891 -0.2875
 6292W        W15772   9.638   4.559   7.021 -0.0496 -0.0672  0.3439
 6293W        W15773  10.860  12.105   1.670  0.1118  0.0401  0.0820
 6294W        W15774   7.450   9.676   1.440  0.2813  0.1655 -0.2648
 6295W        W15775   5.784   2.543   0.967  0.0642  0.5606 -0.1657
 6296W        W15776  11.388   4.272   9.078 -0.2212 -0.2378 -0.3704
 6297W        W15777   9.724   2.430   7.932  0.0322  0.2658 -0.1128
 6298W        W15778  12.249   1.028   1.333  0.1366 -0.2024  0.5136
 6299W        W15779  14.784   0.687   0.874 -0.0478 -0.1505 -0.2167
 6300W        W15780  11.596   6.812   7.550 -0.0727 -0.0174 -0.0085
 6301W        W15781   6.267   2.326   1.119  0.0938 -0.1624 -0.0058
 6302W        W15782  12.559   0.480   0.841 -0.0995  0.1940 -0.1254
 6303W        W15783  10.302   3.078   7.390  0.1315 -0.2402  0.1344
 6304W        W15784  13.676  15.443   6.843 -0.0060  0.0534 -0.0338
 6305W        W15785  12.178   4.340   2.045 -0.0428 -0.2671  0.0620
 6306W        W15786   1.349   9.824   2.205 -0.1273 -0.3549 -0.0663
 6307W        W15787   9.969   3.887   0.916 -0.1188 -0.3112  0.1211
 6308W        W15788   7.208   6.652   7.663 -0.1754  0.0500  0.1341
 6309W        W15789  12.386  14.285   0.061  0.0224  0.1978  0.2839
 6310W        W15790  12.337   3.907   1.778 -0.0752 -0.4372 -0.0836
 6311W        W15791   7.354  14.218   0.776  0.1090 -0.1774  0.0648
 6312W        W15792   5.575  11.019   0.037 -0.0927  0.0116  0.0661
 6313W        W15793   5.060   7.301   7.679  0.3421  0.0352 -0.3114
 6314W        W15794   8.280   2.671   8.218  0.1054  0.0466  0.0524
 6315W        W15795   7.233   1.832   0.582 -0.1958 -0.1122 -0.2909
 6316W        W15796   7.928   5.579   0.894  0.1193  0.2395 -0.0229
 6317W        W15797  10.967   1.141   6.588 -0.2399  0.0360  0.1145
 6318W        W15798   7.779   4.794   8.169  0.1424  0.1981 -0.1245
 6319W        W15799   6.755   1.649   8.823  0.0879 -0.0291 -0.0133
 6320W        W15800   9.842   1.752   0.374  0.0498 -0.1650  0.2443
 6321W        W15801  11.654  14.519   7.110 -0.3230 -0.0856  0.1072
 6322W        W15802   6.666  13.701   1.829 -0.0120 -0.0980 -0.1062
 6323W        W15803  11.751   3.403   1.574  0.1649  0.0748 -0.0341
 6324W        W15804  10.778  13.587   2.561  0.1317 -0.1097 -0.1055
 6325W        W15805  14.241   8.723   6.163  0.2838  0.2011 -0.2033
 6326W        W15806   6.276   1.884   0.883  0.0511  0.1544  0.0085
 6327W        W15807   5.424  14.559   0.893 -0.2421  0.1583 -0.1227
 6328W        W15808   8.144  13.146   0.122  0.0746 -0.1411 -0.0105
 6329W        W15809  12.231   2.115   3.182 -0.0728  0.3484  0.2183
 6330W        W15810   6.714   3.047   2.286  0.1366 -0.0516 -0.2193
 6331W        W15811   8.924   2.930   7.010  0.1873 -0.0819  0.1217
 6332W        W15812  11.760   4.012   8.802  0.0261 -0.2825  0.1108
 6333W        W15813  10.382  11.609   7.004  0.0162  0.1347  0.2410
 6334W        W15814  11.656   3.657   7.980 -0.0019  0.1339  0.1036
 6335W        W15815   6.072   0.473   8.526 -0.1782  0.1747 -0.1969
 6336W        W15816   9.045  14.263   1.791  0.3818  0.1383  0.1692
 6337W        W15817  11.123  13.231   8.849  0.2514 -0.0006 -0.2196
 6338W        W15818   1.678   6.805   1.659  0.1552  0.0081  0.2169
 6339W        W15819  10.386   6.389   6.674  0.0057  0.0056  0.2100
 6340W        W15820  12.105  10.271   1.604 -0.1679  0.1859  0.2353
 6341W        W15821   5.468   0.358   0.177 -0.2980 -0.1994  0.2010
 6342W        W15822   9.208   6.375   6.839 -0.1160 -0.0717 -0.2225
 6343W        W15823  11.458   6.125   8.953 -0.0220 -0.0077  0.0577
 6344W        W15824   6.487  11.296   7.938  0.1781 -0.1089 -0.0285
 6345W        W15825  12.065   5.525   8.286 -0.1139  0.0129 -0.0653
 6346W        W15826   7.650   1.998   0.985  0.0916 -0.1042 -0.2470
 6347W        W15827   5.707  11.340   8.795  0.2408 -0.1268  0.0714
 6348W        W15828   6.045   4.972   8.275  0.3901 -0.0357 -0.3051
 6349W        W15829  13.840  14.312   0.424  0.2544  0.1296 -0.1406
 6350W        W15830   7.348  10.749   8.100 -0.2431 -0.2026  0.3001
 6351W        W15831  12.383  12.273   1.967  0.1305 -0.1548 -0.1595
 6352W        W15832   8.867   3.703   2.522  0.4528 -0.0327 -0.1314
 6353W        W15833   9.194  13.470   0.342  0.1735  0.0793  0.1818
 6354W        W15834  12.367  12.218   1.452  0.0456  0.2601 -0.1036
 6355W        W15835  14.499   0.736   2.634 -0.1325 -0.0053 -0.1960
 6356W        W15836   3.391   1.083   7.354 -0.3460  0.1368  0.4508
 6357W        W15837   7.647  12.492   0.484  0.1156  0.4026 -0.0676
 6358W        W15838   0.913   4.688   0.817  0.2023  0.0698  0.3097
 6359W        W15839  10.996   3.793   1.977  0.1753 -0.2199  0.0570
 6360W        W15840  10.778   8.495   7.450 -0.2434 -0.0989 -0.2727
 6361W        W15841   9.456   4.839   2.105  0.2472 -0.3089 -0.0231
 6362W        W15842   7.302  13.470   1.257 -0.0527 -0.0029 -0.2379
 6363W        W15843  14.291   5.601   6.841 -0.1069 -0.1478 -0.1346
 6364W        W15844   4.258  14.822   7.998  0.0319  0.0577  0.0585
 6365W        W15845  12.264   1.944   0.430  0.0159  0.0603 -0.1983
 6366W        W15846   5.599   5.443   2.214  0.1397  0.2658  0.0140
 6367W        W15847   7.558  13.917   1.154  0.1310  0.1755  0.0717
 6368W        W15848   9.748  15.204   2.638 -0.0617  0.2174 -0.1574
 6369W        W15849  10.272   0.759   1.250 -0.0889 -0.0557  0.1907
 6370W        W15850  11.045   4.584   8.966  0.1479  0.2831  0.0947
 6371W        W15851  11.668   2.639   2.100 -0.3167  0.3229 -0.0575
 6372W        W15852   9.603   0.741   1.161  0.0972  0.0477  0.1623
 6373W        W15853   5.143   3.642   9.085  0.0142 -0.0740  0.3676
 6374W        W15854  10.882  14.011   0.389  0.0936  0.0392 -0.0545
 6375W        W15855   8.202   5.111   0.988  0.0102  0.0717  0.0227
 6376W        W15856  11.907  12.806   2.017  0.0653  0.2981 -0.0704
 6377W        W15857  10.297   3.509   0.457  0.0686  0.0529 -0.1139
 6378W        W15858   3.082   1.960   8.054  0.1336 -0.1482 -0.2157
 6379W        W15859   4.699  14.916   8.292 -0.0483 -0.0156  0.2977
 6380W        W15860  10.547   2.950   1.421 -0.1382  0.0143  0.0555
 6381W        W15861  12.394   0.825   6.435 -0.1667  0.0049 -0.0421
 6382W        W15862   2.098   0.485   0.832  0.4803  0.0587 -0.0392
 6383W        W15863   9.510  12.931   7.390 -0.0596  0.2205  0.2456
 6384W        W15864   4.150  12.676   2.157  0.0472  0.0167 -0.2908
 6385W        W15865   8.061  14.889   7.661 -0.2414 -0.1499 -0.3039
 6386W        W15866   4.098   2.746   0.691 -0.0832 -0.0703 -0.1733
 6387W        W15867   8.363   0.972   7.439 -0.2686 -0.0528 -0.0626
 6388W        W15868   7.140   5.304   8.547 -0.0897  0.0467 -0.1169
 6389W        W15869  15.080  12.554   1.503 -0.1080 -0.0795 -0.4172
 6390W        W15870   9.957   2.816   2.433  0.0323  0.0431 -0.2933
 6391W        W15871   7.919   7.152   8.705 -0.2761 -0.2484 -0.0832
 6392W        W15872   7.289   0.367   7.128  0.1867  0.2441  0.1938
 6393W        W15873  14.286   5.913   1.170  0.1307  0.0226 -0.3066
 6394W        W15874  11.664  11.030   8.920 -0.0755 -0.2489 -0.0099
 6395W        W15875   9.356  14.787   8.880 -0.1797  0.0495  0.1547
 6396W        W15876  10.085  14.483   1.607 -0.3965 -0.0049 -0.1417
 6397W        W15877  15.105  15.284   1.354  0.0900  0.1546  0.2128
 6398W        W15878   2.718   2.559   8.400  0.2163 -0.1237  0.1168
 6399W        W15879  15.423   3.539   7.530 -0.0111 -0.1101  0.2504
 6400W        W15880  14.597   6.863   7.511 -0.0136 -0.1379  0.1333
 6401W        W15881   4.881   1.853   8.441  0.1844  0.0365  0.2043
 6402W        W15882  11.315   3.333   8.328 -0.2172 -0.1322 -0.1349
 6403W        W15883   2.790   5.509   7.595  0.1222  0.0343 -0.0873
 6404W        W15884  10.977   0.249   8.520 -0.3691 -0.1218  0.0450
 6405W        W15885   7.271   2.256   7.129  0.0483 -0.0668  0.2723
 6406W        W15886   8.708   2.948   8.876 -0.2272 -0.2180 -0.0300
 6407W        W15887   9.247  13.524   6.218  0.1457 -0.0059 -0.0551
 6408W        W15888   6.683   3.529   2.168  0.1272 -0.2065 -0.0731
 6409W        W15889   4.730   3.556   2.036 -0.0663 -0.0023 -0.1999
 6410W        W15890  14.530  14.080   8.817  0.0799  0.2092  0.1289
 6411W        W15891   8.936   2.887   7.589  0.0897  0.1642 -0.1922
 6412W        W15892   7.374   2.319   2.144  0.0886  0.0922  0.0027
 6413W        W15893   5.151   2.455   7.929  0.1705  0.6047  0.4568
 6414W        W15894   4.865   0.048   0.813 -0.1255  0.0501  0.2883
 6415W        W15895   5.922   0.553   0.444 -0.2357 -0.0677 -0.2006
 6416W        W15896   4.449   4.159   6.922 -0.0620 -0.0845 -0.1087
 6417W        W15897  11.195   2.809   6.833  0.0807 -0.0488 -0.1812
 6418W        W15898  12.549   2.414   8.042  0.1728 -0.0884 -0.2791
 6419W        W15899   8.370  13.119   6.321  0.0342  0.0313 -0.3223
 6420W        W15900   4.918   1.508   8.991 -0.1808 -0.1917  0.2863
 6421W        W15901  10.222   1.906   6.611 -0.0401 -0.0432 -0.2910
 6422W        W15902  11.059   2.897   1.478 -0.2837 -0.2854  0.1816
 6423W        W15903   5.457   0.482   1.543  0.0828 -0.0858 -0.0018
 6424W        W15904   1.043   3.513   1.714 -0.1292 -0.2087 -0.2020
 6425W        W15905  12.690  14.433   1.020 -0.1072 -0.0548 -0.0437
 6426W        W15906   9.055  14.708   1.595 -0.2200 -0.0275  0.0621
 6427W        W15907   9.391   1.331   8.673 -0.1450  0.0365 -0.0307
 6428W        W15908   6.377   1.816   8.307 -0.0389 -0.0326 -0.1757
 6429W        W15909  11.221  15.137   1.706 -0.2608 -0.0621 -0.0841
 6430W        W15910   8.783   0.667   6.824  0.1087 -0.1092  0.0845
 6431W        W15911   4.880   4.342   7.868 -0.0025  0.0610 -0.2726
 6432W        W15912   7.763   2.567   8.193  0.1462  0.0917  0.0349
 6433W        W15913   2.325  14.942   8.808  0.3173 -0.0734 -0.2212
 6434W        W15914  13.145   7.807   9.020  0.0971 -0.1495  0.1991
 6435W        W15915  13.943   2.044   8.038  0.1882 -0.1598 -0.0600
 6436W        W15916   4.611   4.382   0.370  0.1945 -0.0013 -0.2748
 6437W        W15917   7.172  11.751   8.870 -0.1864 -0.0418 -0.4375
 6438W        W15918   3.898   2.453   7.520  0.3315  0.1125  0.2594
 6439W        W15919  13.199   8.259   8.799  0.0248  0.0769  0.1739
 6440W        W15920   5.877   6.246   7.706 -0.2744 -0.2299 -0.1723
 6441W        W15921   5.332   3.175   2.778 -0.2201 -0.0972  0.1554
 6442W        W15922   9.977   5.187   8.145 -0.0509 -0.1852 -0.0990
 6443W        W15923  10.579   3.086   8.183  0.2195  0.2107 -0.0397
 6444W        W15924   5.835  13.740   8.588 -0.1780  0.0954  0.0276
 6445W        W15925   6.644   2.531   0.866 -0.2021 -0.1184  0.0214
 6446W        W15926   3.979   6.578   6.809  0.1042 -0.1791  0.0814
 6447W        W15927   8.721   3.593   8.197  0.0138  0.1521 -0.4039
 6448W        W15928   8.162  14.860   2.355  0.4179 -0.2807  0.3001
 6449W        W15929   9.864  14.682   2.039 -0.1436 -0.2574  0.0360
 6450W        W15930   5.898   1.467   2.689  0.1275 -0.0524 -0.4759
 6451W        W15931   4.463   8.394   1.023 -0.1030  0.1613  0.0525
 6452W        W15932   3.073   6.379   0.942 -0.3569  0.1101  0.1246
 6453W        W15933   8.668   0.249   0.076 -0.1588  0.0706  0.0729
 6454W        W15934  14.717  14.246   0.116  0.1536  0.1395 -0.0431
 6455W        W15935  10.244   2.602   6.478  0.0224  0.0398  0.0216
 6456W        W15936   8.578   2.189   7.265  0.1565  0.2079 -0.1340
 6457W        W15937  13.052   5.575   6.779 -0.2449  0.1321 -0.0298
 6458W        W15938  12.789   1.273   2.550 -0.0876  0.2144 -0.1666
 6459W        W15939  13.431   0.285   6.506 -0.0788 -0.0376  0.0072
 6460W        W15940  14.001   1.563   8.157  0.2406 -0.3042  0.0252
 6461W        W15941  10.460   0.523   0.679  0.2145 -0.0090 -0.1857
 6462W        W15942   4.245  11.607   2.162  0.3493  0.1014 -0.0057
 6463W        W15943  11.702   1.036   2.621 -0.0560  0.4090 -0.2147
 6464W        W15944  12.035  15.302   2.264  0.0997  0.1759 -0.1969
 6465W        W15945   8.201   1.597   0.088 -0.2170 -0.1073  0.1158
 6466W        W15946   9.932   6.182   8.087 -0.0388  0.0257  0.0365
 6467W        W15947   3.931  10.977   0.702 -0.0788  0.0970  0.2930
 6468W        W15948  11.492   0.094   6.827  0.0406 -0.0876 -0.3191
 6469W        W15949   5.595   2.673   7.799 -0.0302 -0.2173 -0.1754
 6470W        W15950  11.581   1.632   0.877 -0.0868  0.0271  0.2006
 6471W        W15951   5.619   4.398   1.538  0.0718 -0.0014 -0.0590
 6472W        W15952   9.129   4.341   2.028  0.1376  0.1700  0.1238
 6473W        W15953   9.742  15.344   0.624  0.1550  0.1362 -0.0423
 6474W        W15954   9.763  10.195   0.710 -0.2056  0.1163  0.1201
 6475W        W15955  13.009  11.669   2.627  0.1306  0.0824 -0.2142
 6476W        W15956   9.531   3.903   0.034  0.1686  0.0313  0.1255
 6477W        W15957  13.163   3.745   2.525  0.1481 -0.0590  0.1179
 6478W        W15958   4.708  11.958   7.471 -0.1410  0.0746 -0.4085
 6479W        W15959  14.881  13.492   8.626  0.0552  0.0754 -0.2037
 6480W        W15960   7.654  15.129   7.617  0.0931 -0.4507  0.1313
 6481W        W15961   9.044   5.581   2.570  0.1101 -0.0827 -0.0712
 6482W        W15962   6.346   6.428   1.125  0.2446 -0.0188  0.1998
 6483W        W15963   3.403   1.578   7.288  0.1373 -0.2072  0.2378
 6484W        W15964   7.027   3.189   0.378  0.3301  0.0096 -0.1912
 6485W        W15965  10.817  14.412   2.145 -0.1915 -0.0333  0.1057
 6486W        W15966   6.203   3.732   2.083 -0.1397 -0.0039  0.1164
 6487W        W15967   4.833   3.941   1.615  0.0748 -0.0387 -0.0339
 6488W        W15968   7.995   0.991   8.284 -0.1285  0.0428 -0.0436
 6489W        W15969   1.279   7.883   2.556 -0.0563 -0.1253 -0.1057
 6490W        W15970   7.097   2.748   7.511 -0.1157 -0.1654 -0.0818
 6491W        W15971   3.818   3.398   1.536  0.0332  0.0197 -0.2476
 6492W        W15972  13.233   5.799   8.123  0.1807 -0.1552 -0.1233
 6493W        W15973  11.394   0.276   2.169 -0.2130 -0.1960  0.0471
 6494W        W15974  11.825   1.288   1.465  0.1976  0.0953 -0.0971
 6495W        W15975  11.429   4.768   7.804  0.0137  0.0888 -0.2069
 6496W        W15976   7.964   1.347   2.022 -0.0249 -0.0948 -0.1217
 6497W        W15977  13.545   0.852   2.044 -0.2587  0.3223 -0.0111
 6498W        W15978  13.714  11.793   6.656  0.0199  0.1661 -0.1866
 6499W        W15979  13.351   4.304   1.216 -0.2943 -0.1272 -0.2671
 6500W        W15980   2.885  10.061   0.958  0.1534  0.2455  0.0085
 6501W        W15981  14.007   4.507   1.734 -0.0976  0.0337  0.1901
 6502W        W15982   1.925  13.825   2.373  0.0455  0.1402  0.0006
 6503W        W15983  11.663   3.071   8.763  0.0511 -0.2720 -0.0047
 6504W        W15984   3.742  15.122   6.397  0.1273 -0.0080  0.0585
 6505W        W15985   8.696  12.052   7.483 -0.1517 -0.1308 -0.2541
 6506W        W15986   9.674  13.390   8.060 -0.2433 -0.0494  0.2051
 6507W        W15987   0.119  12.093   7.921 -0.1198 -0.1348  0.0285
 6508W        W15988   4.802   3.673   0.364 -0.1362 -0.2234 -0.0354
 6509W        W15989  13.332  11.496   2.116 -0.1702  0.0902  0.3426
 6510W        W15990  12.521   2.170   0.003  0.1876  0.0012 -0.0583
 6511W        W15991   4.066   2.396   8.348  0.4771 -0.1297  0.0855
 6512W        W15992  13.461   3.822   7.983 -0.0746 -0.0948  0.0953
 6513W        W15993  10.404   2.602   7.371 -0.0544 -0.0038  0.0105
 6514W        W15994  12.913   2.996   8.252 -0.0398 -0.1166  0.1882
 6515W        W15995  10.173  14.826   1.246 -0.2838  0.2438 -0.0657
 6516W        W15996   6.973   1.422   1.484 -0.2789  0.0892 -0.0222
 6517W        W15997  10.781   5.504   8.024  0.2008  0.2382 -0.1105
 6518W        W15998   9.271  13.825   7.991 -0.3844 -0.0173 -0.0198
 6519W        W15999  13.308   1.470   2.068 -0.0727  0.1922  0.2709
 6520W        W16000  13.336   3.049   7.998 -0.1490  0.0866 -0.0831
 6521W        W16001   4.831  12.621   7.345 -0.2009  0.0438 -0.0172
 6522W        W16002   5.077  13.722   7.818  0.2265  0.0989  0.0340
 6523W        W16003  14.381  10.284   1.945 -0.3692  0.0974  0.2202
 6524W        W16004  11.584   2.031   1.692 -0.0497  0.1610 -0.2107
 6525W        W16005  10.909   1.563   0.087  0.2231  0.1117  0.0960
 6526W        W16006   9.451   0.115   2.907 -0.1094  0.0178 -0.2531
 6527W        W16007  10.278  14.017   8.590 -0.1578  0.3391 -0.0415
 6528W        W16008  13.712   0.592   6.837 -0.4198 -0.0560  0.0540
 6529W        W16009   2.672   3.649   7.571  0.1074 -0.1959 -0.1415
 6530W        W16010  10.889   3.366   1.727 -0.2668  0.1713  0.1719
 6531W        W16011   4.319   0.043   0.683 -0.2174  0.0539 -0.3034
 6532W        W16012   9.238   4.549   5.797  0.2192  0.2705  0.0141
 6533W        W16013  11.509  13.835   0.882  0.0213 -0.0665 -0.0250
 6534W        W16014  15.037   2.959   1.616  0.1189  0.2389  0.3880
 6535W        W16015  13.423   1.344   0.799  0.4633  0.0140  0.2041
 6536W        W16016  14.037  11.174   8.374  0.1380  0.1610  0.0124
 6537W        W16017   6.766  15.034   2.001  0.0521  0.2958 -0.0202
 6538W        W16018   2.245   0.442   1.834  0.2591 -0.0064  0.2361
 6539W        W16019   0.608   4.791   2.043  0.0418 -0.0867 -0.2420
 6540W        W16020  15.076   1.587   1.164  0.2391 -0.1554  0.2068
 6541W        W16021   2.379   0.084   0.343  0.2374  0.1892 -0.0121
 6542W        W16022  13.154   3.051   8.926  0.1622 -0.0296  0.0172
 6543W        W16023   1.969   3.497   0.889 -0.0524 -0.0746  0.1327
 6544W        W16024   3.055  12.614   0.805 -0.1502 -0.4580  0.0016
 6545W        W16025   9.092  15.149   7.453 -0.1550  0.1210 -0.1572
 6546W        W16026  14.034   0.350   8.327  0.1368  0.0025  0.2423
 6547W        W16027  11.547   8.267   2.115  0.1494 -0.1407  0.0522
 6548W        W16028   5.172  13.984   8.247  0.1691 -0.1294  0.1139
 6549W        W16029  11.580  14.511   0.490 -0.0558 -0.1499 -0.1750
 6550W        W16030  10.344   0.161   1.849  0.0952  0.1344  0.0394
 6551W        W16031   0.848  15.284   6.975 -0.0909 -0.1807 -0.1368
 6552W        W16032  14.408   0.987   1.101 -0.3583  0.3099 -0.0148
 6553W        W16033  10.051  11.869   0.600  0.1078  0.2675  0.0007
 6554W        W16034   2.206   0.744   7.583  0.3732 -0.0825  0.0356
 6555W        W16035  14.574   4.998   1.006  0.2400 -0.1381 -0.0749
 6556W        W16036  13.394  13.821   8.016 -0.1114 -0.1365  0.0033
 6557W        W16037  14.605  11.818   0.812 -0.1653  0.1645 -0.1636
 6558W        W16038   8.781  14.268   7.386  0.2749  0.1264 -0.0043
 6559W        W16039   4.674   2.479   0.609  0.1785  0.1155 -0.0901
 6560W        W16040   9.183  13.916   8.460  0.2405  0.1577  0.1980
 6561W        W16041   9.815   0.258   1.879  0.3786 -0.3729 -0.1764
 6562W        W16042   1.569  12.772   8.266  0.1204 -0.3749  0.2448
 6563W        W16043   0.205  15.417   0.128 -0.6000 -0.1674  0.0286
 6564W        W16044  13.942   2.118   8.889 -0.0457 -0.4974  0.2013
 6565W        W16045  13.526   1.211   1.648  0.1787  0.1124  0.0311
 6566W        W16046  14.844   8.228   7.340  0.1770 -0.0162 -0.0340
 6567W        W16047   4.545   0.888   2.174  0.0175 -0.0950  0.2176
 6568W        W16048  11.284  12.512   1.541  0.0987 -0.2066  0.2318
 6569W        W16049   0.119   4.030   8.878  0.2445 -0.1633 -0.1071
 6570W        W16050  13.729  15.149   1.816 -0.2964 -0.3047  0.0489
 6571W        W16051   9.988   4.412   7.980 -0.0904 -0.0432  0.0410
 6572W        W16052  12.728   3.861   7.377 -0.2640  0.0009 -0.4810
 6573W        W16053  11.421   1.545   1.354  0.0842  0.0156  0.2688
 6574W        W16054  12.778  12.802   1.305 -0.0637 -0.3486 -0.6141
 6575W        W16055   7.051  10.285   1.905  0.0985  0.0699 -0.0146
 6576W        W16056  13.009   1.700   2.467 -0.0621 -0.1133  0.1483
 6577W        W16057  13.758   6.385   6.024  0.1513  0.1445 -0.1839
 6578W        W16058   9.269   3.448   1.549 -0.1896  0.0879 -0.1967
 6579W        W16059   9.474  10.158   6.696 -0.0687 -0.1938  0.1590
 6580W        W16060   8.611  15.139   8.372 -0.1001  0.0374  0.2560
 6581W        W16061  14.024   0.569   2.745  0.1179 -0.2495 -0.3273
 6582W        W16062   1.240   1.777   2.072 -0.2489  0.2520  0.1823
 6583W        W16063  15.020  14.590   0.178 -0.2096  0.1822 -0.0451
 6584W        W16064  12.601  11.264   8.051 -0.3106  0.0672  0.1120
 6585W        W16065   7.257   2.246   2.655  0.4288  0.1677 -0.0059
 6586W        W16066  12.794   9.362   0.126 -0.2141  0.2232  0.2575
 6587W        W16067  13.140  10.457   0.075 -0.2486 -0.0989  0.0586
 6588W        W16068   3.716   3.615   6.207 -0.3487  0.1577 -0.2766
 6589W        W16069   1.379   5.723   2.230 -0.0855  0.1812  0.0608
 6590W        W16070  11.607   0.584   1.835 -0.2183  0.0155  0.0081
 6591W        W16071   9.561   5.619   0.963  0.1337 -0.4371 -0.2846
 6592W        W16072   8.585   2.704   6.090 -0.1039  0.2757 -0.1342
 6593W        W16073   1.201   2.304   7.213  0.0740  0.0913 -0.1949
 6594W        W16074   2.647   0.296   1.294 -0.0067  0.2174 -0.1637
 6595W        W16075   1.762  12.208   0.659 -0.2948  0.1581 -0.1934
 6596W        W16076   2.892   1.490   8.235 -0.0131 -0.0975 -0.0902
 6597W        W16077   0.698   6.342   8.699 -0.1541  0.0595  0.2408
 6598W        W16078  10.565   9.733   8.158  0.0941 -0.0355 -0.1075
 6599W        W16079  10.248  13.136   8.543 -0.2183  0.1129  0.3604
 6600W        W16080  10.626   2.532   2.311 -0.1760 -0.1178  0.1114
 6601W        W16081   0.279   4.228   0.214 -0.0915  0.0640 -0.0936
 6602W        W16082   3.233   2.024   1.291  0.1929  0.0290  0.0898
 6603W        W16083   5.275   1.092   0.920 -0.1553 -0.1192 -0.2700
 6604W        W16084  12.574   5.288   7.569 -0.2798 -0.0476 -0.0205
 6605W        W16085   9.671   4.738   7.745 -0.0833 -0.2495  0.1447
 6606W        W16086  13.377   1.303   8.960  0.0605  0.0604  0.0407
 6607W        W16087  11.139   1.262   2.075  0.1762  0.0397  0.2963
 6608W        W16088  13.015  10.911   8.916 -0.2938 -0.1340 -0.1285
 6609W        W16089   1.561   6.173   7.335  0.0172  0.0744  0.2874
 6610W        W16090   1.968  13.624   0.657 -0.2082 -0.0141  0.0733
 6611W        W16091  11.873   2.184   2.209 -0.2405 -0.0365  0.1242
 6612W        W16092   9.822   3.260   0.255 -0.0891 -0.0054 -0.0006
 6613W        W16093   8.272   2.182   0.404  0.1279  0.1216 -0.0262
 6614W        W16094  14.912  15.149   0.842  0.3798  0.1010  0.0736
 6615W        W16095  13.198  15.000   7.620 -0.0962 -0.0497 -0.1178
 6616W        W16096  10.143   2.784   8.839  0.2724  0.2226  0.0118
 6617W        W16097  11.405  13.241   7.818  0.2549  0.2482 -0.0961
 6618W        W16098  12.533   3.940   0.756  0.0909 -0.1397  0.0478
 6619W        W16099  11.710   3.571   8.573 -0.1249 -0.2205  0.2878
 6620W        W16100  12.838   0.188   7.103  0.1209 -0.1117 -0.1870
 6621W        W16101  10.593   1.985   8.370  0.0795  0.2733  0.1559
 6622W        W16102  14.072   3.486   0.104  0.2761  0.1610  0.0032
 6623W        W16103  13.966   2.217   0.564  0.1201  0.1029  0.0265
 6624W        W16104  12.465   3.328   2.158 -0.1866  0.1620 -0.1235
 6625W        W16105  13.298   2.513   2.193 -0.0635  0.2004  0.2758
 6626W        W16106  13.502  13.669   7.166  0.2572  0.0256 -0.0335
 6627W        W16107  12.650   1.542   2.131  0.1510 -0.1367  0.0067
 6628W        W16108   1.057   1.859   7.048  0.0891 -0.2103 -0.1814
 6629W        W16109   8.165   0.768   7.059 -0.0103 -0.1118 -0.2601
 6630W        W16110   1.859   7.618   8.959  0.0745 -0.2435 -0.0141
 6631W        W16111   3.361  12.083   0.189 -0.1019 -0.0413  0.1541
 6632W        W16112  12.912   2.205   1.594  0.3320  0.3721 -0.0094
 6633W        W16113  11.183  14.288   6.428  0.0114 -0.0997  0.1664
 6634W        W16114   8.244  14.966   1.511 -0.0302 -0.0931  0.1475
 6635W        W16115   5.786   7.317   7.977  0.0678  0.1823  0.0233
 6636W        W16116  12.016  11.346   1.408  0.2027 -0.0065 -0.4399
 6637W        W16117  10.375   1.828   7.884 -0.2365  0.0414  0.0991
 6638W        W16118   8.506   1.833   1.845 -0.0641  0.4775  0.2924
 6639W        W16119   4.218   6.813   7.165  0.1757  0.0211 -0.0058
 6640W        W16120  12.364   2.668   0.038 -0.1111  0.1000 -0.2615
 6641W        W16121  15.047  14.737   1.167 -0.1137 -0.2025  0.0288
 6642W        W16122   5.637   1.295   1.311 -0.0462 -0.1015 -0.0656
 6643W        W16123   1.443   6.334   1.572 -0.1991  0.2650 -0.0906
 6644W        W16124   9.646   1.583   8.319  0.1764 -0.1632 -0.1170
 6645W        W16125  11.226   2.648   9.017 -0.1524  0.2900 -0.1979
 6646W        W16126   4.988   0.839   7.894 -0.2010 -0.2982 -0.0616
 6647W        W16127  12.296  13.338   7.219  0.1272  0.2691 -0.0118
 6648W        W16128   8.600   2.160   0.827 -0.0185 -0.0910 -0.1869
 6649W        W16129  13.889  14.827   7.114  0.0942  0.1342 -0.0781
 6650W        W16130  12.640   2.832   7.834 -0.1182  0.1017 -0.1163
 6651W        W16131  10.579   6.515   8.103 -0.1746  0.2341  0.1850
 6652W        W16132  13.933   5.962   6.779  0.0067  0.0306  0.1340
 6653W        W16133  13.195  15.031   0.358  0.1786 -0.2057  0.1898
 6654W        W16134   5.530  15.424   8.173 -0.2129 -0.5285 -0.0749
 6655W        W16135   6.743   0.698   2.066  0.1849 -0.2072 -0.0785
 6656W        W16136  11.056   1.890   0.446 -0.0415 -0.0470  0.0076
 6657W        W16137  12.691   5.926   8.201  0.0842 -0.4536  0.1481
 6658W        W16138   9.355   4.933   6.927  0.0149 -0.3366  0.1175
 6659W        W16139  13.674   2.818   1.506  0.3081  0.3138 -0.1201
 6660W        W16140   8.303   4.347   1.912  0.0762  0.0693 -0.0376
 6661W        W16141   8.603   6.930   8.068 -0.0019 -0.0450 -0.1696
 6662W        W16142   8.561  14.695   7.073 -0.3665 -0.0931 -0.0350
 6663W        W16143   8.327  13.572   1.611 -0.0472  0.1974  0.3677
 6664W        W16144   7.685   8.412   8.915  0.0364 -0.0003  0.0741
 6665W        W16145  10.716  13.085   8.479  0.1286 -0.3534 -0.1456
 6666W        W16146   5.944  11.053   2.870 -0.4619 -0.1835  0.0013
 6667W        W16147  12.547   0.677   1.304 -0.2615 -0.0967  0.1210
 6668W        W16148  10.290  11.856   6.579 -0.0325 -0.0048  0.3998
 6669W        W16149   7.969   5.158   0.552  0.0312  0.0337  0.3524
 6670W        W16150   9.534   0.736   0.620 -0.3501  0.0621 -0.1961
 6671W        W16151  14.716   0.120   1.112 -0.3725 -0.0209  0.0929
 6672W        W16152   9.888   7.093   8.276 -0.2102  0.0962  0.1793
 6673W        W16153  13.464   4.182   2.388 -0.1666 -0.1482  0.3194
 6674W        W16154  10.478   2.954   0.875  0.0098  0.0291 -0.1176
 6675W        W16155   1.916   8.083   8.300 -0.2404  0.0277 -0.2755
 6676W        W16156   2.071   6.051   1.415 -0.1966  0.2889 -0.1502
 6677W        W16157  12.587   3.375   7.266  0.0704 -0.1493 -0.0644
 6678W        W16158  13.468   0.958   1.140  0.0075 -0.0256 -0.0488
 6679W        W16159  15.401   0.153   1.155 -0.1564  0.1369  0.1093
 6680W        W16160  10.312  11.247   8.319  0.1760  0.0807  0.0769
 6681W        W16161  12.399   2.142   7.087  0.0933  0.0571  0.1692
 6682W        W16162  12.374   1.608   0.033 -0.4578  0.0357 -0.0175
 6683W        W16163   6.463  10.881   0.227 -0.0390 -0.1657 -0.0103
 6684W        W16164   9.984   1.985   2.136  0.2687 -0.2580 -0.3736
 6685W        W16165  12.499   2.383   0.435 -0.1898 -0.2233 -0.1212
 6686W        W16166   4.558   3.251   6.445  0.2970  0.0663  0.1940
 6687W        W16167   6.559   3.160   0.168  0.1252 -0.1896 -0.3672
 6688W        W16168  14.416   3.384   1.950 -0.3568  0.2364  0.1300
 6689W        W16169   9.890   6.606   8.537  0.0925  0.0877  0.1594
 6690W        W16170   2.955   3.924   0.657  0.0037 -0.0228  0.0413
 6691W        W16171   1.492   3.803   7.757  0.0213  0.0183 -0.1356
 6692W        W16172   0.398   1.060   1.285 -0.1653  0.1080 -0.1319
 6693W        W16173   2.386   1.871   6.867  0.1489  0.0567 -0.2318
 6694W        W16174  11.439   0.974   1.631  0.1745  0.0399 -0.0116
 6695W        W16175  15.377   2.043   1.160 -0.0136 -0.1066 -0.2295
 6696W        W16176  12.401   6.683   1.178 -0.2013 -0.2730 -0.1811
 6697W        W16177  13.838  12.443   7.473  0.3072  0.1023 -0.1029
 6698W        W16178  13.895   0.263   1.119  0.0416 -0.0200  0.1830
 6699W        W16179  10.134  13.131   0.192 -0.1507  0.0177  0.1980
 6700W        W16180   0.698   0.249   0.750  0.0394 -0.1038 -0.0892
 6701W        W16181   6.047   3.220   1.590  0.3253 -0.1779 -0.0029
 6702W        W16182   8.458  14.132   1.585  0.0061 -0.2188  0.1357
 6703W        W16183   2.650  14.299   1.652 -0.0337  0.3401  0.0940
 6704W        W16184  13.296  14.748   8.372 -0.1453 -0.2987  0.2136
 6705W        W16185   1.320   6.344   9.091  0.0511  0.1903  0.0194
 6706W        W16186   2.659   7.560   0.322  0.1826  0.1492  0.0585
 6707W        W16187  14.278   5.493   0.326 -0.0153  0.0560 -0.0856
 6708W        W16188  12.943  14.273   7.443  0.1007  0.0746  0.0005
 6709W        W16189  13.529   2.088   6.329  0.0971 -0.2718  0.0160
 6710W        W16190  15.354   2.493   6.859  0.1503  0.0248  0.0792
 6711W        W16191  12.596   3.288   0.046  0.2888 -0.1753  0.0245
 6712W        W16192  11.421   0.592   6.989  0.3029 -0.3400 -0.0150
 6713W        W16193  13.756  15.318   0.823 -0.0924 -0.4198  0.1572
 6714W        W16194  13.643   3.640   0.796  0.0822 -0.1167  0.0128
 6715W        W16195  13.871   8.120   7.945 -0.3153 -0.0726  0.1829
 6716W        W16196   5.105   5.904   1.459 -0.0035  0.0634 -0.2071
 6717W        W16197   2.224   1.353   6.794 -0.0978 -0.0061  0.1197
 6718W        W16198   2.209  14.698   6.230  0.0868  0.3332 -0.0177
 6719W        W16199   0.275   6.020   7.800 -0.0238 -0.2255 -0.1828
 6720W        W16200  15.011   1.808   0.740 -0.0505  0.0167 -0.3343
 6721W        W16201   2.410   1.842   1.778  0.0468 -0.2810  0.0350
 6722W        W16202   1.920   0.539   2.175  0.1366  0.0260 -0.2099
 6723W        W16203  15.291   2.421   9.041  0.3738 -0.0270  0.1506
 6724W        W16204   2.578   0.773   0.725 -0.1736 -0.2347  0.0084
 6725W        W16205   5.850  12.464   0.969  0.1429  0.1296  0.0958
 6726W        W16206   1.351  12.653   7.269 -0.1773  0.4409 -0.4041
 6727W        W16207  14.031  14.749   2.052  0.0690 -0.0776 -0.1367
 6728W        W16208   2.672  15.158   0.200  0.0792  0.3653 -0.0556
 6729W        W16209   6.350  10.698   0.791  0.1907  0.0721  0.0993
 6730W        W16210  10.518   4.980   0.179  0.0912 -0.0742 -0.1568
 6731W        W16211  13.727  12.093   8.293  0.0445  0.0000 -0.0585
 6732W        W16212   8.036   0.874   8.807  0.0418 -0.1624  0.0262
 6733W        W16213  14.753   0.576   1.334 -0.0559 -0.0357  0.2289
 6734W        W16214   0.454   1.560   6.677 -0.2633  0.3589  0.1190
 6735W        W16215  15.068   3.954   0.197  0.2011  0.1202  0.2270
 6736W        W16216   1.634   3.596   1.257 -0.0056  0.1854  0.0788
 6737W        W16217  14.655   2.384   7.822  0.0039  0.0306 -0.2364
 6738W        W16218   2.153   2.992   0.973  0.1027 -0.1382  0.0514
 6739W        W16219   5.239  15.021   1.957  0.0034 -0.0572  0.1086
 6740W        W16220  11.799  15.236   1.799  0.1617 -0.1360  0.0873
 6741W        W16221  13.801   4.561   6.205  0.1973 -0.3416  0.4145
 6742W        W16222  12.196   2.033   7.480  0.1363 -0.1037  0.0556
 6743W        W16223   4.152   1.312   6.803 -0.2328 -0.5069  0.1440
 6744W        W16224  12.049   6.365   1.649 -0.2468 -0.1453  0.1772
 6745W        W16225  13.258   4.964   1.656  0.0361 -0.2422 -0.2098
 6746W        W16226   2.599  13.260   7.037 -0.0189  0.1028  0.2009
 6747W        W16227  13.540   3.752   2.168  0.1017 -0.1763  0.2868
 6748W        W16228   0.088  12.352   2.509 -0.6109 -0.2659  0.4267
 6749W        W16229   0.330   0.840   7.483  0.1826  0.0334 -0.1047
 6750W        W16230  13.610  14.682   1.784 -0.1636 -0.3474  0.2197
 6751W        W16231   2.087   1.410   1.715  0.2153 -0.2896 -0.0349
 6752W        W16232   5.608   5.239   0.610 -0.1817  0.3714  0.0673
 6753W        W16233  15.251   0.867   7.730 -0.0938  0.3547 -0.0661
 6754W        W16234   2.467  13.970   1.338  0.3019 -0.0280  0.2788
 6755W        W16235  13.268   0.313   8.886 -0.2274 -0.0225 -0.1516
 6756W        W16236  14.293   4.309   2.134 -0.0859 -0.1962 -0.0682
 6757W        W16237   2.026  14.202   2.102 -0.1019  0.0870  0.2907
 6758W        W16238   5.422   4.201   0.881 -0.1944  0.2031  0.1491
 6759W        W16239   2.669  11.404   7.110  0.1569  0.0513  0.0359
 6760W        W16240   9.176  14.370   8.612  0.1024  0.0643 -0.1085
 6761W        W16241   0.854  12.946   0.017 -0.0814  0.2133  0.0347
 6762W        W16242   2.225   5.554   8.381 -0.0599  0.2987  0.1200
 6763W        W16243   4.305   5.201   7.284  0.3467 -0.3134 -0.2475
 6764W        W16244  14.021   4.710   9.035 -0.1058 -0.0920 -0.5710
 6765W        W16245   3.388   3.763   0.972 -0.0386 -0.1866  0.0619
 6766W        W16246   1.076  13.202   0.939 -0.0207  0.4644  0.1933
 6767W        W16247  13.163  12.046   1.708  0.2147 -0.0084  0.0171
 6768W        W16248   4.693   1.544   1.362  0.1624  0.1703 -0.1914
 6769W        W16249   2.822   2.196   7.610  0.1209 -0.1213 -0.1563
 6770W        W16250   3.958   2.473   1.863  0.1466  0.3210  0.1538
 6771W        W16251  12.719  11.204   0.990  0.1666  0.2808  0.0304
 6772W        W16252   4.201   1.894   0.095 -0.1480  0.1302 -0.3748
 6773W        W16253   1.010   2.651   1.539 -0.0880  0.0881 -0.3410
 6774W        W16254   0.493   1.438   1.672 -0.1866 -0.1493 -0.0179
 6775W        W16255   8.956   5.310   0.508  0.3554  0.1489 -0.1904
 6776W        W16256  15.116   0.070   7.091  0.0759 -0.0124  0.1055
 6777W        W16257   0.949   9.158   7.362 -0.3210 -0.0510 -0.2377
 6778W        W16258  14.542   6.264   1.503 -0.2377  0.0229  0.0395
 6779W        W16259  10.421  14.803   0.726 -0.0706 -0.0763  0.0033
 6780W        W16260  10.951   1.752   8.750 -0.2581 -0.1761 -0.0303
 6781W        W16261   1.429   1.575   0.145 -0.2897 -0.1194  0.1580
 6782W        W16262   5.142   3.111   1.489 -0.0737  0.0313 -0.0641
 6783W        W16263  13.992   3.907   1.004  0.0756 -0.0843 -0.0074
 6784W        W16264  15.421   5.290   7.522 -0.0727  0.0547 -0.2716
 6785W        W16265  10.905   6.965   8.056  0.1090  0.1542 -0.0024
 6786W        W16266  10.542   2.521   1.068  0.1332  0.0023  0.3256
 6787W        W16267   1.276  11.355   7.780  0.2372 -0.0389 -0.1583
 6788W        W16268   2.978   6.327   7.782  0.1326 -0.2406 -0.2650
 6789W        W16269  15.218   4.584   1.719 -0.2272  0.3104 -0.1672
 6790W        W16270  12.911   0.441   2.119 -0.2545  0.1287  0.0597
 6791W        W16271   7.556  12.054   8.914 -0.3960 -0.0689 -0.3191
 6792W        W16272   4.452   3.977   2.107  0.1170  0.0367  0.0533
 6793W        W16273  15.360   6.461   7.643  0.1840  0.0807 -0.1322
 6794W        W16274   7.729   1.748   8.905 -0.3219 -0.3431 -0.2720
 6795W        W16275   0.668   5.153   8.182  0.2435  0.3092  0.0902
 6796W        W16276   2.387   1.161   1.453 -0.0286  0.2299 -0.0599
 6797W        W16277  15.450   2.440   2.922  0.4507  0.0562  0.2622
 6798W        W16278  13.250   0.819   7.019  0.0968  0.0677  0.0015
 6799W        W16279   3.240   2.161   8.533 -0.2192 -0.0609 -0.1825
 6800W        W16280   1.601  14.475   0.862 -0.0862  0.0110  0.0933
 6801W        W16281   1.781   1.958   8.024  0.1822 -0.0180 -0.2203
 6802W        W16282  14.352  11.252   7.108 -0.0846 -0.2398  0.1430
 6803W        W16283   0.701   1.670   0.695  0.3462 -0.1217 -0.2900
 6804W        W16284  15.184   0.406   8.771  0.0369 -0.1527 -0.0118
 6805W        W16285  13.149   5.197   0.783  0.0139 -0.4496 -0.1635
 6806W        W16286   3.249  11.181   8.146  0.3822 -0.1046 -0.2277
 6807W        W16287  13.673   6.339   1.761 -0.1904 -0.1670  0.3420
 6808W        W16288  13.802   3.418   8.208  0.0358  0.0594  0.0101
 6809W        W16289  13.748   7.151   7.266  0.2488  0.0096  0.0687
 6810W        W16290   4.603   7.325   2.154 -0.1076  0.3012  0.0105
 6811W        W16291  11.773   4.578   0.112  0.0703 -0.0355 -0.0137
 6812W        W16292   5.011   5.653   2.842  0.0078 -0.3853  0.0803
 6813W        W16293   5.897   3.426   1.042 -0.1197  0.2467  0.1171
 6814W        W16294   0.258   2.462   0.351  0.2287  0.1326 -0.2846
 6815W        W16295   4.701  11.837   8.862  0.0379 -0.1127 -0.0366
 6816W        W16296   1.043   5.391   8.317 -0.0569 -0.1713 -0.2391
 6817W        W16297   1.887   2.696   1.329  0.2016 -0.1392  0.3757
 6818W        W16298  14.748   9.584   8.611  0.2233  0.0860 -0.0322
 6819W        W16299   1.589   6.441   8.285 -0.1196 -0.6080  0.1017
 6820W        W16300   3.442  11.411   1.886  0.1237  0.3415 -0.0670
 6821W        W16301  13.684   1.066   6.895 -0.3306  0.0853 -0.2035
 6822W        W16302  13.965  10.936   7.086  0.1886 -0.0590 -0.0393
 6823W        W16303   0.177   6.323   1.073  0.2119 -0.3069  0.4377
 6824W        W16304  15.026   2.681   8.693 -0.1351  0.0061  0.1590
 6825W        W16305  13.863   2.889   1.049  0.1393  0.0511  0.1565
 6826W        W16306   5.392  12.516   0.672  0.0935 -0.0461 -0.1427
 6827W        W16307   5.299   6.476   0.288  0.0662  0.0696  0.2490
 6828W        W16308  13.349   9.380   2.708 -0.4342  0.2048  0.0968
 6829W        W16309  14.222   3.985   7.464  0.3787  0.1329  0.0034
 6830W        W16310   1.392   8.181   0.715  0.0529  0.0239 -0.3161
 6831W        W16311   0.503   2.795   2.504  0.0209 -0.0104 -0.2966
 6832W        W16312   0.940  11.049   7.430  0.0222  0.4659 -0.2585
 6833W        W16313   7.654   5.419   6.413 -0.2522  0.0230 -0.1310
 6834W        W16314  13.562   2.281   8.644  0.1886  0.0957  0.0468
 6835W        W16315   1.729  13.769   1.842 -0.1491 -0.1378 -0.1064
 6836W        W16316   0.830   9.316   6.893  0.3652 -0.3274 -0.3554
 6837W        W16317  14.075   5.488   1.688  0.0541  0.2069  0.0959
 6838W        W16318   7.750   6.679   8.792 -0.1154 -0.0608 -0.0749
 6839W        W16319  15.435   3.606   1.696 -0.2144 -0.0930 -0.0118
 6840W        W16320   4.335   3.941   7.904 -0.1385  0.1371 -0.1220
 6841W        W16321   1.323   4.323   1.435 -0.2215 -0.0884 -0.0812
 6842W        W16322   7.201   7.216   7.623  0.3664  0.0037  0.1548
 6843W        W16323   2.720   3.861   0.233  0.1333 -0.1189 -0.1244
 6844W        W16324  14.930   5.605   8.193 -0.0005  0.2043  0.1924
 6845W        W16325   5.109   0.723   8.407 -0.2002  0.2155  0.2330
 6846W        W16326  14.613   2.274   8.469  0.3527  0.2307 -0.1489
 6847W        W16327   6.547   3.815   1.776 -0.1260 -0.0313  0.2352
 6848W        W16328  14.351   1.068   7.026  0.1672  0.2236 -0.1905
 6849W        W16329   3.098   0.671   9.054 -0.2803 -0.0218 -0.2577
 6850W        W16330   0.518   9.042   1.433 -0.0808 -0.1963  0.0238
 6851W        W16331   4.640  10.504   3.014 -0.0920 -0.0645  0.0150
 6852W        W16332   9.702  13.267   0.545  0.2261 -0.2002 -0.0085
 6853W        W16333   5.437   3.073   8.120  0.0254  0.2373  0.0297
 6854W        W16334   1.355   2.726   2.396 -0.1189 -0.1338 -0.1654
 6855W        W16335   3.400  14.572   7.599  0.1160 -0.5584 -0.3305
 6856W        W16336   2.567   5.540   1.850  0.0433  0.0465 -0.1426
 6857W        W16337   1.866   4.061   7.282 -0.0422  0.0906 -0.1329
 6858W        W16338   9.232  12.206   8.091  0.2631  0.0594  0.0321
 6859W        W16339   4.940   2.248   2.013  0.1494 -0.1387 -0.0465
 6860W        W16340  12.645  11.855   8.068  0.2432 -0.2634 -0.0951
 6861W        W16341  12.612   4.279   1.648  0.0059  0.2258  0.0279
 6862W        W16342   1.290   7.729   6.517  0.0236 -0.2015 -0.1532
 6863W        W16343   0.330   9.687   0.106 -0.0897 -0.0978 -0.0613
 6864W        W16344   0.115   2.637   1.837 -0.0431  0.1636 -0.4090
 6865W        W16345   1.393  13.590   7.333 -0.1252 -0.3508  0.1299
 6866W        W16346   3.032  14.213   7.629  0.0638 -0.1382  0.0145
 6867W        W16347   1.406  10.124   0.607 -0.0850 -0.0311  0.0095
 6868W        W16348  12.881  14.797   1.245  0.2059  0.0179  0.0455
 6869W        W16349  11.129   1.921   8.316  0.3669 -0.0104 -0.0919
 6870W        W16350   5.046   4.605   0.231 -0.1214 -0.1346 -0.2350
 6871W        W16351  14.339   0.958   0.609 -0.3342  0.0138  0.2184
 6872W        W16352   0.750   6.867   1.625  0.0363  0.0088 -0.1073
 6873W        W16353   5.133  14.238   8.702  0.0228 -0.0080  0.3649
 6874W        W16354  14.219   2.117   7.099  0.0873  0.0523 -0.2237
 6875W        W16355   0.849   5.828   8.452  0.1405 -0.1041 -0.2700
 6876W        W16356   2.347   9.112   7.169 -0.1615  0.2306  0.0687
 6877W        W16357  13.273   7.891   8.445 -0.1244 -0.1888  0.3937
 6878W        W16358   4.927   1.068   1.319  0.2441 -0.3079 -0.0851
 6879W        W16359  14.960   4.075   7.058  0.1925  0.1374 -0.1421
 6880W        W16360   5.025   4.703   2.449  0.0660 -0.1301 -0.3303
 6881W        W16361   7.092   2.720   2.171 -0.1310  0.3600 -0.0108
 6882W        W16362   0.830   3.146   8.155  0.1168  0.0145  0.2095
 6883W        W16363  13.828   2.505   0.097  0.1048 -0.0328 -0.0414
 6884W        W16364  14.435   1.822   8.028 -0.0900 -0.1554 -0.1803
 6885W        W16365  14.477   7.012   1.250 -0.0024  0.1525  0.0143
 6886W        W16366  11.543  13.863   8.400 -0.0250  0.1085 -0.1444
 6887W        W16367  14.669   4.691   1.875  0.2666 -0.2283 -0.2530
 6888W        W16368   3.150  15.085   0.582  0.0585 -0.0676 -0.0208
 6889W        W16369   2.438   6.945   7.555 -0.1208 -0.3052 -0.2824
 6890W        W16370   1.814   2.803   2.219 -0.2693  0.0118  0.2745
 6891W        W16371   4.039   6.176   0.749  0.1329  0.1099  0.0643
 6892W        W16372  13.995   2.209   7.557 -0.1214 -0.3714 -0.2902
 6893W        W16373   1.594   8.640   8.111  0.1223  0.0563  0.0216
 6894W        W16374   6.275  10.233   8.916 -0.0529 -0.2604 -0.0723
 6895W        W16375  14.466   0.341   1.831  0.2685 -0.0960 -0.0343
 6896W        W16376   9.810  14.802   0.052 -0.1167 -0.1808  0.1541
 6897W        W16377  12.829   4.972   0.402 -0.1421 -0.2941  0.2278
 6898W        W16378   1.493  11.791   0.320 -0.0509  0.2460  0.1934
 6899W        W16379   4.605   7.883   8.638  0.1237 -0.0329  0.4641
 6900W        W16380   2.453   2.145   0.719 -0.0141 -0.2933 -0.2552
 6901W        W16381   1.561   8.544   1.113 -0.0784 -0.1589 -0.0177
 6902W        W16382   4.519   5.252   1.510 -0.1721  0.1548  0.0983
 6903W        W16383   2.219   4.106   2.157 -0.0714 -0.2864 -0.1234
 6904W        W16384   0.640   4.796   2.563 -0.0805 -0.1707 -0.1037
 6905W        W16385   8.784   8.922   1.379 -0.1200  0.0680 -0.0885
 6906W        W16386  15.182   7.399   1.865  0.3692  0.0777  0.2545
 6907W        W16387   2.968   0.455   0.928 -0.0119 -0.0423  0.2608
 6908W        W16388   6.643  13.624   6.803  0.1059 -0.1101 -0.1124
 6909W        W16389  15.116   9.750   1.545  0.1523 -0.1458  0.2844
 6910W        W16390   3.346   1.517   7.806  0.0321 -0.0690  0.4040
 6911W        W16391   2.456   3.250   1.745  0.4202 -0.1461 -0.0061
 6912W        W16392   1.956   3.543   8.718  0.2652  0.0360  0.2809
 6913W        W16393  15.442   0.573   2.072 -0.0829  0.3260 -0.1276
 6914W        W16394   3.780   6.236   1.644  0.0130 -0.1457 -0.1041
 6915W        W16395   2.552  10.624   8.790  0.1861 -0.2677 -0.2079
 6916W        W16396   0.817   8.984   8.681 -0.1942 -0.0510 -0.1405
 6917W        W16397   3.224   3.626   6.181  0.3220 -0.0280  0.0459
 6918W        W16398   1.155   6.868   0.769 -0.0066 -0.3121 -0.4593
 6919W        W16399   6.414   8.473   7.436 -0.3316  0.0508  0.2134
 6920W        W16400   0.411   5.797   1.093 -0.2879  0.2679 -0.6089
 6921W        W16401   0.402  11.744   7.731  0.1386 -0.1253  0.2631
 6922W        W16402   4.304   6.204   2.336 -0.1318 -0.0752  0.0621
 6923W        W16403   1.143   6.267   1.187  0.0741 -0.1166 -0.2384
 6924W        W16404   2.037   8.834   1.229  0.0608 -0.0683 -0.0461
 6925W        W16405  13.232   7.065   0.999  0.2351 -0.1170 -0.1935
 6926W        W16406  14.785   0.752   8.613  0.0649  0.0641  0.2556
 6927W        W16407   0.752   3.362   1.338  0.0568  0.0557 -0.3005
 6928W        W16408   0.916   1.621   0.304  0.0218 -0.0090  0.1825
 6929W        W16409  10.483   5.139   7.365 -0.0530  0.0351 -0.2195
 6930W        W16410   5.951  10.044   1.324 -0.1992  0.0308  0.4240
 6931W        W16411   3.075   9.425   6.865  0.2004  0.0300 -0.1552
 6932W        W16412   2.105   0.937   1.808 -0.0785  0.0809  0.1070
 6933W        W16413  10.349   3.466   0.953 -0.0927  0.3289 -0.1846
 6934W        W16414   4.204   7.654   0.310  0.2332  0.4833  0.0255
 6935W        W16415   4.009   8.505   1.805  0.0368  0.0609  0.1634
 6936W        W16416   1.895   6.294   1.836 -0.1807 -0.1131  0.0594
 6937W        W16417   2.133   7.575   0.285  0.0251 -0.3508 -0.0671
 6938W        W16418   3.527   8.599   6.963  0.0369  0.0182  0.2118
 6939W        W16419   5.305  12.650   7.520  0.0738  0.0859 -0.1838
 6940W        W16420  14.887   4.186   7.944  0.2565  0.2246  0.2539
 6941W        W16421   1.164  15.333   8.730  0.0709  0.3339  0.3717
 6942W        W16422   2.112   6.724   1.964 -0.0596 -0.0607  0.1730
 6943W        W16423   8.565   1.134   7.031  0.1493 -0.0493 -0.2614
 6944W        W16424  13.927   9.109   8.323  0.1669  0.1800  0.2014
 6945W        W16425  14.408   6.521   1.098  0.1679 -0.0136 -0.0098
 6946W        W16426   0.924   9.001   1.969  0.3928  0.1852  0.0869
 6947W        W16427   3.146   0.900   0.787  0.1894  0.0895  0.2635
 6948W        W16428   7.823   4.363   8.437  0.1445  0.0155  0.0697
 6949W        W16429   3.504   4.715   2.422 -0.2580  0.0066  0.0079
 6950W        W16430   1.950   8.509   8.477  0.0722 -0.1612 -0.0769
 6951W        W16431   4.386   4.771   1.458  0.0219 -0.0642  0.1067
 6952W        W16432   1.386   0.668   8.317 -0.1726  0.0414  0.0934
 6953W        W16433   0.195  14.871   0.191 -0.2910  0.1870  0.0385
 6954W        W16434  14.101   1.592   0.521  0.0636 -0.0296 -0.0086
 6955W        W16435  10.833   7.353   0.813  0.2565 -0.1864 -0.2021
 6956W        W16436   0.952   8.488   8.154 -0.1255  0.1419  0.2983
 6957W        W16437   3.642   3.659   7.910 -0.4142 -0.0337 -0.1644
 6958W        W16438   4.106   4.410   0.056 -0.2185 -0.1024 -0.1635
 6959W        W16439  14.767   5.393   0.170  0.0264  0.4935  0.1715
 6960W        W16440  10.934   3.045   0.015 -0.0020  0.1729 -0.1905
 6961W        W16441   6.539   8.624   0.613 -0.1785 -0.2397  0.2493
 6962W        W16442  10.384  10.645   7.350  0.1287 -0.1360  0.0405
 6963W        W16443   6.109   0.921   7.315  0.2252 -0.0771 -0.0499
 6964W        W16444   1.085  14.258   0.708 -0.0731 -0.1999 -0.0946
 6965W        W16445   3.867  14.237   0.318 -0.0692  0.0328  0.1826
 6966W        W16446   7.217   1.861   2.362 -0.1817  0.0489 -0.0919
 6967W        W16447   3.411   4.133   8.747  0.0895  0.3781 -0.0971
 6968W        W16448  14.256   5.254   8.761  0.0057  0.0378 -0.4427
 6969W        W16449   4.269   6.077   1.244  0.2074  0.0852  0.0172
 6970W        W16450   1.128   5.078   7.348 -0.1233  0.0414  0.1675
 6971W        W16451  13.819  11.708   0.492  0.0291  0.1953  0.1810
 6972W        W16452   9.845   4.413   2.059  0.0295 -0.2804 -0.1450
 6973W        W16453   2.773   5.994   1.921 -0.0574 -0.1428 -0.0926
 6974W        W16454   3.674  11.298   7.224  0.0920 -0.1139  0.1142
 6975W        W16455   5.692  12.031   0.762 -0.0015  0.1259  0.1372
 6976W        W16456   0.131   8.482   2.572 -0.1238  0.2672 -0.0184
 6977W        W16457   5.006   1.909   0.131 -0.0055  0.3182  0.0159
 6978W        W16458   1.495   8.447   0.273  0.0573  0.3474  0.1465
 6979W        W16459   4.006   0.022   1.439 -0.0971 -0.1370  0.0410
 6980W        W16460   1.203   3.095   1.502 -0.1048  0.1539  0.0182
 6981W        W16461  13.749   5.047   8.010  0.2629  0.1397  0.2538
 6982W        W16462   5.343   3.919   7.773  0.1090 -0.0615  0.2391
 6983W        W16463  13.783   4.563   8.242  0.0707  0.0880 -0.0730
 6984W        W16464   2.905   4.413   0.513  0.1454 -0.0893 -0.0844
 6985W        W16465  13.190   6.148   8.827  0.3016  0.2354  0.1059
 6986W        W16466   4.932   2.874   8.204 -0.2109 -0.3120 -0.0635
 6987W        W16467   3.446   4.602   7.557  0.1161 -0.3780 -0.0321
 6988W        W16468   2.038   4.601   2.225 -0.1824  0.0296 -0.0668
 6989W        W16469  12.870   6.783   7.107 -0.1462  0.0534 -0.2505
 6990W        W16470   1.006   2.905   1.090 -0.2410 -0.0858 -0.1405
 6991W        W16471  14.050   3.566   7.039  0.0485  0.0110 -0.1858
 6992W        W16472  14.393   3.137   0.426  0.0861  0.0899  0.2562
 6993W        W16473  13.408   2.034   6.879  0.1909 -0.0005  0.1726
 6994W        W16474   0.619   1.763   7.157  0.2034  0.0524 -0.0421
 6995W        W16475  13.675  10.296   0.259  0.2579  0.1704  0.1877
 6996W        W16476   2.507   4.860   8.934  0.0729  0.0380  0.2909
 6997W        W16477  11.592   4.720   8.337 -0.3429 -0.4252 -0.2170
 6998W        W16478   3.297   3.205   7.296 -0.1460 -0.0672  0.0244
 6999W        W16479  13.898   4.478   1.061  0.0140  0.2806 -0.0359
 7000W        W16480   6.594   8.972   1.780  0.3110 -0.2101  0.1057
 7001W        W16481   4.055   5.666   1.504  0.0273 -0.2710  0.0063
 7002W        W16482   3.879   3.943   8.422  0.3895 -0.0767  0.0126
 7003W        W16483   5.839   9.117   2.257  0.1840 -0.0650  0.2702
 7004W        W16484   1.249   9.873   1.069 -0.3215 -0.1065 -0.2534
 7005W        W16485   5.072   3.135   2.030  0.1851 -0.0706 -0.0155
 7006W        W16486   2.967   8.533   7.243 -0.2854 -0.0151  0.0946
 7007W        W16487   2.318   3.683   2.416  0.0052 -0.1786  0.1407
 7008W        W16488   4.067   6.648   0.388 -0.0784 -0.0439 -0.1272
 7009W        W16489   2.476   3.038   8.392 -0.0934  0.0159  0.2027
 7010W        W16490  13.624  14.888   0.710  0.0454  0.0475 -0.1201
 7011W        W16491   8.500   3.946   1.604  0.2524  0.1814  0.2909
 7012W        W16492   3.008   4.812   2.422  0.1317 -0.0305 -0.2254
 7013W        W16493   7.495   3.495   1.330  0.2180 -0.0141  0.4047
 7014W        W16494   3.547   5.299   8.788  0.2033  0.2991 -0.1544
 7015W        W16495   8.807   5.498   8.929 -0.1417 -0.0908 -0.0159
 7016W        W16496   8.838   2.142   8.138  0.3651 -0.0190  0.0641
 7017W        W16497   3.164   8.108   7.093  0.2509  0.1666 -0.0404
 7018W        W16498   8.868   5.154   1.494  0.3267 -0.1029  0.0104
 7019W        W16499   7.389   6.063   8.258 -0.2319 -0.1887 -0.1740
 7020W        W16500   9.350   8.861   9.044  0.4042  0.1068  0.2223
 7021W        W16501   0.593   5.261   1.808 -0.0994 -0.0089  0.1675
 7022W        W16502  13.466   8.008   1.246  0.2091  0.0662 -0.2387
 7023W        W16503   5.023   3.456   2.455 -0.0003  0.1047  0.1477
 7024W        W16504   2.798   5.361   1.488 -0.0214  0.0798  0.1444
 7025W        W16505   4.634   6.314   7.767  0.0050 -0.1116  0.0847
 7026W        W16506   8.614  14.184   2.052  0.0370 -0.1988  0.1230
 7027W        W16507   5.377   5.614   8.633  0.0081 -0.1914  0.2108
 7028W        W16508   5.377   3.440   7.630  0.2937  0.1905 -0.3104
 7029W        W16509  11.770   8.743   7.379 -0.1111  0.1179 -0.0396
 7030W        W16510   9.664   2.862   0.574  0.1564  0.3188 -0.2337
 7031W        W16511   7.030   1.863   6.975  0.0815 -0.0654 -0.0445
 7032W        W16512   6.670  14.808   6.772  0.2823  0.1574  0.2622
 7033W        W16513   3.050   1.724   0.328  0.0274 -0.4187 -0.3008
 7034W        W16514  13.352   0.749   7.944  0.1084 -0.0139  0.0809
 7035W        W16515   3.972   3.843   7.537 -0.1345 -0.1331  0.3713
 7036W        W16516   9.690   4.692   1.658  0.1525  0.0264  0.1054
 7037W        W16517   5.857   4.454   1.965 -0.4187  0.2951 -0.1343
 7038W        W16518  10.391   6.755   1.582 -0.0895  0.0888 -0.2189
 7039W        W16519   4.497  13.759   0.310 -0.3161 -0.1125 -0.0727
 7040W        W16520  13.503   3.541   0.293  0.1459  0.1383  0.2438
 7041W        W16521   2.938   6.717   0.531  0.1968  0.0787  0.0018
 7042W        W16522   3.959   4.159   7.105 -0.1860  0.2907 -0.1510
 7043W        W16523   4.527   5.553   8.411  0.1553  0.0889 -0.0799
 7044W        W16524   4.427   7.525   8.955  0.1580 -0.0252 -0.0258
 7045W        W16525   5.045   5.917   7.488 -0.0314  0.1169 -0.0283
 7046W        W16526  10.753   3.384   2.730  0.0019 -0.1929  0.1402
 7047W        W16527   7.506  10.097   0.947 -0.1636 -0.1051 -0.0219
 7048W        W16528   5.838   8.658   8.744 -0.3054 -0.0017  0.1439
 7049W        W16529   1.590  10.652   2.036 -0.1169  0.0043  0.1533
 7050W        W16530  11.105   7.394   7.311 -0.0692  0.0638  0.2023
 7051W        W16531   6.073   2.027   7.442  0.0332  0.1032  0.2208
 7052W        W16532   3.510   5.380   0.707  0.2041 -0.1141 -0.0224
 7053W        W16533   4.352   8.027   0.583  0.1489  0.1828 -0.1491
 7054W        W16534   6.324   7.269   0.490  0.0295 -0.3718 -0.1207
 7055W        W16535  11.119   1.070   8.296 -0.0865 -0.0932 -0.0232
 7056W        W16536   6.425   1.865   1.328  0.0375 -0.1274 -0.2268
 7057W        W16537   7.334   0.583   8.339 -0.0448 -0.0868  0.0133
 7058W        W16538   3.833   7.439   1.465  0.4323  0.1177 -0.1413
 7059W        W16539  11.425   4.160   0.903  0.4317 -0.0249 -0.0822
 7060W        W16540   6.282   6.203   7.406  0.2561 -0.3386  0.2343
 7061W        W16541   1.786   5.685   1.195 -0.0144 -0.1527  0.0984
 7062W        W16542   5.098  12.945   1.883 -0.0655 -0.4181  0.0817
 7063W        W16543   5.358   4.849   1.483  0.2297 -0.0238  0.0110
 7064W        W16544   8.693   6.912   9.096 -0.0176  0.0358 -0.2437
 7065W        W16545   4.799   5.138   0.110  0.1465  0.2370 -0.1605
 7066W        W16546  11.821   6.438   8.938  0.3556 -0.0776 -0.1253
 7067W        W16547   7.392   2.239   8.225  0.3163 -0.3432  0.1344
 7068W        W16548   7.537   3.390   0.816  0.0684 -0.1070  0.1218
 7069W        W16549   2.199   2.750   1.951 -0.1872  0.2248  0.0947
 7070W        W16550   3.318   5.415   7.897  0.1422 -0.2042 -0.0959
 7071W        W16551   8.826   2.555   0.991  0.1258  0.1614 -0.1916
 7072W        W16552   8.257   6.089   1.552  0.1495 -0.0401  0.0727
 7073W        W16553   4.833  15.183   8.653  0.0116 -0.0181  0.0038
 7074W        W16554   7.079   5.818   2.296  0.1156  0.0451 -0.1252
 7075W        W16555   8.312  10.223   7.268  0.0395 -0.1157 -0.0162
 7076W        W16556   8.881   5.164   6.934  0.0867  0.0579  0.1015
 7077W        W16557   2.256   0.627   0.218  0.0043 -0.1334 -0.2481
 7078W        W16558   4.379   5.848   0.670 -0.3522 -0.2523 -0.0315
 7079W        W16559   4.777   7.647   6.917  0.0756  0.1068  0.1753
 7080W        W16560   6.813   8.953   1.030 -0.1101  0.0578  0.0544
 7081W        W16561  13.712   1.205   8.525  0.3470 -0.0482  0.1228
 7082W        W16562  12.875   5.760   1.123 -0.2087 -0.1219  0.2340
 7083W        W16563  15.364   7.372   0.924 -0.2761 -0.1943  0.0336
 7084W        W16564   2.650   8.470   1.734 -0.0882 -0.0712 -0.1485
 7085W        W16565   4.062   5.353   8.034 -0.0594  0.0922  0.0368
 7086W        W16566   7.408   2.566   1.720 -0.0877  0.3675  0.1976
 7087W        W16567   7.836   6.931   1.639 -0.0492  0.0719 -0.5191
 7088W        W16568   2.738  14.095   8.902 -0.1025  0.1276  0.2108
 7089W        W16569   1.562  13.390   8.557 -0.0034  0.0404  0.0889
 7090W        W16570   1.258   7.617   1.556  0.0385  0.0632  0.0375
 7091W        W16571   3.451   4.263   1.031  0.2174  0.0226  0.0815
 7092W        W16572   7.448   3.940   0.058  0.0491  0.0026  0.3534
 7093W        W16573  14.755   1.966   0.346 -0.0887 -0.1306 -0.0657
 7094W        W16574   0.217  10.467   1.459  0.3330  0.0150 -0.0339
 7095W        W16575   7.225  12.999   0.495 -0.0292 -0.2000  0.0845
 7096W        W16576   5.321   8.321   0.765  0.1204 -0.1738 -0.0843
 7097W        W16577   6.641   5.256   1.626 -0.3099 -0.2347  0.3504
 7098W        W16578   1.774   6.704   9.044 -0.0150  0.1767 -0.2019
 7099W        W16579   8.324   3.447   1.450 -0.4644  0.0836  0.1591
 7100W        W16580   2.004  10.879   0.629  0.1585  0.0274 -0.0694
 7101W        W16581   1.867   7.266   2.240 -0.1015  0.3449  0.2492
 7102W        W16582  12.616   6.162   8.680 -0.2847  0.0223  0.0993
 7103W        W16583   6.231   8.512   8.161 -0.1140  0.1803  0.1807
 7104W        W16584   2.650   3.008   0.801 -0.2054  0.0777  0.3089
 7105W        W16585   4.448   4.154   7.444  0.0464  0.1608 -0.0356
 7106W        W16586   3.770   5.837   8.794 -0.1743  0.1201  0.4012
 7107W        W16587   2.168   0.473   8.833 -0.0820  0.0216 -0.2153
 7108W        W16588   6.161   3.182   7.898 -0.2342 -0.0993 -0.0909
 7109W        W16589   2.077   3.934   8.306 -0.1286 -0.0831 -0.0366
 7110W        W16590   4.614   5.320   8.015  0.0795 -0.0701 -0.1562
 7111W        W16591   8.754   5.193   8.079  0.0976 -0.1310  0.1138
 7112W        W16592   1.126   1.218   1.952 -0.1814 -0.0764  0.2100
 7113W        W16593   7.834   3.215   1.604  0.1097  0.4621  0.2526
 7114W        W16594   4.127   6.793   0.862 -0.0822 -0.0063  0.0951
 7115W        W16595  14.660   2.309   7.240  0.1062 -0.0232 -0.1467
 7116W        W16596  12.085   8.103   7.995  0.1220 -0.3602  0.0065
 7117W        W16597   5.270   8.579   7.789 -0.1024 -0.0865  0.2671
 7118W        W16598  14.392  11.170   7.632 -0.0748  0.1976 -0.1319
 7119W        W16599   6.853   2.832   1.752  0.1979 -0.3868 -0.2123
 7120W        W16600   6.494   6.640   7.319 -0.4906 -0.0364 -0.0688
 7121W        W16601   4.700   5.447   0.488  0.2998 -0.0364 -0.2681
 7122W        W16602   5.338   7.975   9.019 -0.1541  0.1283  0.2483
 7123W        W16603   1.095   4.553   8.678  0.3128  0.1134  0.3075
 7124W        W16604   3.155   4.003   7.162  0.1267  0.2629  0.0517
 7125W        W16605   1.706   4.381   6.942  0.1322 -0.0654  0.2177
 7126W        W16606   6.297   3.071   8.384  0.2564  0.0097 -0.1204
 7127W        W16607   8.533   0.183   1.986  0.0162  0.0449 -0.0869
 7128W        W16608   9.668   2.882   8.090  0.1115  0.0200 -0.0075
 7129W        W16609   4.302   3.285   1.897 -0.1551  0.3363  0.0472
 7130W        W16610   3.691   4.529   1.390  0.0452 -0.0977  0.1173
 7131W        W16611  13.135  10.431   8.708  0.0864  0.1250  0.1253
 7132W        W16612   3.869   8.260   8.350 -0.1323 -0.2375 -0.2402
 7133W        W16613   0.303   3.151   8.201 -0.0413 -0.2843  0.1909
 7134W        W16614   4.807   0.624   7.522 -0.1089 -0.0156  0.1113
 7135W        W16615  14.681   2.587   1.362 -0.1331 -0.0049  0.1276
 7136W        W16616   5.206   7.399   7.207  0.0109  0.2451  0.2593
 7137W        W16617   6.079   4.417   0.757 -0.1441 -0.2346 -0.1841
 7138W        W16618   7.425   4.182   1.975  0.1887  0.1247 -0.1678
 7139W        W16619   4.428   8.848   8.705  0.0512  0.3224  0.3664
 7140W        W16620   5.303   2.472   0.672 -0.0600  0.3470  0.1040
 7141W        W16621   7.262  10.968   8.521  0.2837 -0.1880 -0.2690
 7142W        W16622   5.855   5.981   7.183  0.1144 -0.2375 -0.4122
 7143W        W16623   1.757   8.955   6.291  0.1276  0.0454  0.0661
 7144W        W16624   8.760   6.571   7.342 -0.1014 -0.1624 -0.2549
 7145W        W16625  12.084   2.797   8.685  0.1474 -0.2314 -0.0101
 7146W        W16626   4.046   4.404   7.526  0.0172 -0.0370  0.1836
 7147W        W16627   0.510   4.834   1.088 -0.0288  0.0872  0.0454
 7148W        W16628   3.006   7.606   2.569 -0.1176 -0.5397 -0.2007
 7149W        W16629  13.279   5.297   7.949 -0.1816  0.0552  0.1791
 7150W        W16630   3.651   2.408   8.969  0.1583 -0.1321 -0.3357
 7151W        W16631   5.528   1.702   7.746  0.0523  0.0353 -0.2176
 7152W        W16632   4.684  13.844   8.408  0.0588 -0.4324  0.0704
 7153W        W16633   7.803   4.312   7.451 -0.2732 -0.5041 -0.0799
 7154W        W16634   2.315   2.659   0.581 -0.0319  0.1091 -0.1370
 7155W        W16635   1.322  13.086   0.108  0.2819 -0.0350  0.1170
 7156W        W16636   1.856  11.946   7.860  0.1288 -0.2063  0.1730
 7157W        W16637   4.222   6.056   1.800 -0.0828  0.1579  0.0590
 7158W        W16638   7.605   1.545   2.316  0.0011 -0.2324  0.1131
 7159W        W16639   5.605   7.450   0.585  0.0670  0.2206  0.0874
 7160W        W16640   5.181   2.897   7.641  0.0951 -0.2210  0.0024
 7161W        W16641  10.290   7.847   8.062  0.1162  0.2829  0.0392
 7162W        W16642   3.691   7.550   0.411 -0.1995 -0.0464 -0.3571
 7163W        W16643  12.065   0.791   0.884 -0.2511  0.1517  0.0988
 7164W        W16644   5.256   3.265   0.443 -0.1019  0.4685 -0.0219
 7165W        W16645   6.627   2.358   1.432  0.1104  0.2754 -0.1208
 7166W        W16646   6.031   5.361   0.147 -0.0250 -0.0372  0.3685
 7167W        W16647   4.122   3.521   8.232  0.1067 -0.1878 -0.0140
 7168W        W16648   0.453   0.330   7.477  0.0806 -0.0962 -0.0796
 7169W        W16649   6.567   1.885   0.468 -0.3025  0.2403  0.0348
 7170W        W16650   6.008   1.459   8.139  0.2436  0.1232 -0.1245
 7171W        W16651   3.629  12.054   8.790  0.0545 -0.2520 -0.0981
 7172W        W16652   5.117   5.084   0.549  0.0893  0.2913 -0.1327
 7173W        W16653   9.780   1.590   0.970 -0.0855 -0.2582 -0.1108
 7174W        W16654   2.528  10.116   6.418 -0.2005  0.1888  0.3327
 7175W        W16655   3.984  15.290   0.279 -0.0364 -0.0331  0.0154
 7176W        W16656   4.389  14.181   0.126 -0.2329 -0.1039 -0.2795
 7177W        W16657  15.128   7.777   2.143  0.3807  0.0970 -0.1396
 7178W        W16658   0.955  11.177   2.655 -0.1709  0.0154 -0.2520
 7179W        W16659   4.953   1.477   6.973  0.2483 -0.1253  0.3381
 7180W        W16660   5.787   3.974   0.629 -0.1987  0.2035  0.3794
 7181W        W16661   0.071  10.235   0.959 -0.0363 -0.1213  0.0554
 7182W        W16662   8.924   9.109   2.351 -0.1272 -0.1617 -0.0982
 7183W        W16663   6.308   7.578   7.850  0.3860  0.3570 -0.2393
 7184W        W16664   4.186  12.459   7.946  0.3521  0.0458  0.1920
 7185W        W16665   4.394   6.863   2.247  0.0016 -0.0950 -0.0381
 7186W        W16666   1.431   6.775   0.372 -0.1233  0.2654  0.0256
 7187W        W16667   8.810   3.615   1.271  0.0409  0.2988 -0.1300
 7188W        W16668   5.721   5.822   0.865 -0.1686  0.1524  0.2278
 7189W        W16669   4.773   6.097   8.621  0.2419  0.1802 -0.1827
 7190W        W16670   6.273   1.161   7.875  0.2708  0.1074  0.1373
 7191W        W16671   4.222   5.263   0.525  0.0063 -0.1916 -0.1094
 7192W        W16672   7.390   7.923   6.904 -0.1772 -0.0934  0.0060
 7193W        W16673  15.207   7.338   6.951 -0.0028  0.4522 -0.0764
 7194W        W16674   5.545   0.108   0.851  0.0784 -0.0286  0.1194
 7195W        W16675   9.658   2.861   0.044 -0.1533  0.0635  0.0916
 7196W        W16676   4.993   4.183   7.425 -0.0564 -0.0923  0.0066
 7197W        W16677   4.597  12.825   8.143  0.0238  0.1369 -0.1067
 7198W        W16678   2.355   0.415   7.912  0.2227  0.0617 -0.2737
 7199W        W16679  14.725   6.751   8.889  0.1757 -0.0034  0.1296
 7200W        W16680   9.199   3.467   6.527  0.1076 -0.2435 -0.1726
 7201W        W16681   4.183   4.320   8.380  0.1268 -0.0213  0.0814
 7202W        W16682   0.760   3.350   0.832  0.3166  0.0493  0.0139
 7203W        W16683   8.810   6.499   8.744 -0.0850 -0.0624 -0.2251
 7204W        W16684   5.028   0.815   2.253  0.3208 -0.2100 -0.1499
 7205W        W16685   8.950  14.159   1.307  0.3087 -0.0767  0.3268
 7206W        W16686   4.837   9.846   0.194  0.0930 -0.1700 -0.0518
 7207W        W16687   3.369   4.852   0.494  0.2146  0.1641  0.1361
 7208W        W16688   5.073   5.367   7.778 -0.1271  0.2092 -0.1370
 7209W        W16689   1.664   5.071   8.791 -0.0608 -0.1302  0.1692
 7210W        W16690   2.886   4.114   8.806  0.0549 -0.0127  0.3428
 7211W        W16691  13.680   2.338   1.266 -0.1697 -0.0619  0.0288
 7212W        W16692   2.565   6.866   6.545  0.0205  0.3727 -0.1382
 7213W        W16693   3.643   9.141   8.516  0.0280 -0.1805  0.0837
 7214W        W16694   2.463   6.314   1.174  0.1286  0.2961  0.0893
 7215W        W16695   0.296  10.847   0.709  0.1462  0.0233  0.1330
 7216W        W16696  12.982   3.192   6.482  0.1078 -0.1055  0.0357
 7217W        W16697  10.064   0.817   8.910  0.0695  0.2028 -0.2702
 7218W        W16698   7.701   7.295   6.869  0.0082  0.2758 -0.3005
 7219W        W16699   6.526   3.791   7.581  0.0858 -0.2252  0.1892
 7220W        W16700   6.265   3.009   7.419 -0.0726  0.1887 -0.3258
 7221W        W16701   3.947  15.256   2.369  0.2261  0.1760  0.1953
 7222W        W16702   5.601   1.513   0.890  0.4592  0.0147 -0.1306
 7223W        W16703  11.625   5.993   6.263 -0.3889 -0.0026  0.4643
 7224W        W16704   5.080   3.587   1.315 -0.2147  0.0491 -0.1770
 7225W        W16705   9.805   2.425   0.316 -0.0340 -0.3732  0.2973
 7226W        W16706   4.972  10.746   9.001 -0.5273  0.1337 -0.1351
 7227W        W16707   5.942   4.363   0.289  0.0058 -0.1928 -0.1545
 7228W        W16708  11.214   4.459   0.555 -0.1741 -0.4157 -0.1867
 7229W        W16709   9.268  15.223   0.782  0.1807 -0.2781 -0.0146
 7230W        W16710   8.373   7.286   1.527 -0.5698 -0.2458 -0.0812
 7231W        W16711  12.013   5.361   1.852 -0.1013 -0.1066  0.1765
 7232W        W16712   9.619   5.116   0.815  0.1955  0.1481 -0.1508
 7233W        W16713   6.433   6.267   1.595 -0.3412  0.0520  0.0175
 7234W        W16714  10.257   5.575   8.111  0.2391  0.1432 -0.1327
 7235W        W16715   4.735   1.154   7.468 -0.1978  0.1026 -0.0238
 7236W        W16716   9.331   7.286   1.787 -0.1477  0.0145  0.1721
 7237W        W16717   8.193   8.136   1.360 -0.0992  0.0804  0.0130
 7238W        W16718   9.603  10.157   7.649  0.1136 -0.3472 -0.0222
 7239W        W16719   0.051  11.277   0.892  0.0107  0.1725 -0.1067
 7240W        W16720   6.150   5.379   0.621  0.3807 -0.0124  0.0416
 7241W        W16721   7.516  13.765   9.060  0.0841  0.1119 -0.2093
 7242W        W16722   7.562   2.661   2.400 -0.1344  0.2147 -0.0087
 7243W        W16723   6.506   1.184   8.852  0.0846  0.0736 -0.1453
 7244W        W16724   8.452   0.034   6.465  0.2025  0.0807  0.0871
 7245W        W16725   9.492   4.053   1.067 -0.0648  0.1681 -0.4594
 7246W        W16726   3.587   0.634   0.682  0.1818 -0.4003 -0.1055
 7247W        W16727   5.844   4.033   2.208 -0.1866 -0.1268 -0.0017
 7248W        W16728   6.095   6.010   1.158 -0.1260  0.3032  0.2966
 7249W        W16729  10.578   2.475   0.520  0.0508 -0.0167 -0.0372
 7250W        W16730   9.474   0.491   8.765  0.0252 -0.0692  0.0534
 7251W        W16731   7.894   7.165   7.351  0.1359  0.1570  0.2679
 7252W        W16732  10.956   6.029   7.150 -0.1492 -0.1196  0.4255
 7253W        W16733   5.462   3.924   1.445 -0.0123  0.0540  0.0552
 7254W        W16734  15.221   9.738   8.845 -0.1102 -0.0205 -0.0627
 7255W        W16735  14.605   4.567   8.186  0.1225  0.0190  0.0694
 7256W        W16736   3.595   6.274   6.494  0.0411  0.1516  0.3449
 7257W        W16737   6.293   7.062   7.989  0.0185 -0.3276  0.2891
 7258W        W16738  12.371   5.808   0.991  0.1304  0.1425  0.2172
 7259W        W16739   6.397   6.905   0.938 -0.2095  0.1720  0.0011
 7260W        W16740  13.436  15.151   8.012 -0.1529  0.2680  0.0781
 7261W        W16741   7.033   3.688   7.716  0.5770  0.0857 -0.1608
 7262W        W16742   4.562   3.123   2.302 -0.0803 -0.0462  0.1476
 7263W        W16743   1.306  13.519   1.823 -0.0620  0.1729  0.0850
 7264W        W16744   9.554   3.535   1.989 -0.1066  0.1150  0.2995
 7265W        W16745   6.457   7.239   2.212 -0.0215  0.2818  0.0654
 7266W        W16746   6.578   1.045   0.332 -0.1996 -0.2900  0.0414
 7267W        W16747   8.521   6.366   8.321  0.2810 -0.2816  0.0820
 7268W        W16748   5.454   8.975   8.564  0.0870  0.0536 -0.6328
 7269W        W16749  11.813   3.929   1.754  0.1350 -0.4144  0.2099
 7270W        W16750   7.899   2.169   1.388 -0.1207  0.1036  0.1570
 7271W        W16751  12.193   7.116   1.848  0.2084  0.1024  0.1376
 7272W        W16752   3.181   6.778   8.694 -0.0221  0.0100 -0.2208
 7273W        W16753   9.053   5.677   1.017 -0.4992  0.3773 -0.2597
 7274W        W16754  11.024   1.782   0.914  0.3110 -0.2389 -0.0056
 7275W        W16755  11.623   6.319   8.506  0.1376 -0.0127  0.1232
 7276W        W16756   6.355  11.708   1.916 -0.2108  0.5048 -0.1529
 7277W        W16757  11.973   6.796   1.401 -0.0706 -0.1501 -0.1327
 7278W        W16758   8.014   9.107   1.654 -0.0157 -0.0925 -0.2519
 7279W        W16759   7.978   6.166   7.167  0.1903  0.1872  0.3727
 7280W        W16760  14.051  10.131   8.409 -0.0173  0.0109  0.3740
 7281W        W16761  13.989   6.354   0.391 -0.0602  0.2774  0.0887
 7282W        W16762   7.642   5.084   0.957  0.1997  0.1054  0.0669
 7283W        W16763   7.653   1.441   8.135  0.2427 -0.1105  0.0447
 7284W        W16764  13.968   1.074   1.823  0.0550  0.1567  0.1557
 7285W        W16765   9.190   6.785   7.334  0.1185 -0.0528 -0.2145
 7286W        W16766   7.782   1.583   7.182  0.3059  0.1980  0.0060
 7287W        W16767  13.059   3.946   2.078  0.2765  0.4530  0.2082
 7288W        W16768   6.883   4.209   0.216 -0.4902  0.1639 -0.4420
 7289W        W16769   5.066  11.982   8.567 -0.2558 -0.0176  0.3138
 7290W        W16770  10.663   3.381   7.034  0.3848  0.1100 -0.1544
 7291W        W16771   4.675  10.575   6.939 -0.0157 -0.1333 -0.3695
 7292W        W16772  12.035   6.246   6.171  0.0746 -0.1030 -0.1679
 7293W        W16773  10.274   1.656   2.495 -0.0037 -0.3667  0.2594
 7294W        W16774   8.379   5.203   1.423 -0.1266 -0.0263  0.1298
 7295W        W16775  11.001   7.081   9.022 -0.0492  0.2611  0.3611
 7296W        W16776   6.549   7.273   1.716  0.0321  0.4320 -0.5316
 7297W        W16777   9.114   0.888   1.536  0.0308  0.0310 -0.1251
 7298W        W16778   8.324  13.368   1.181 -0.3484  0.2140  0.0525
 7299W        W16779   7.197   7.079   0.258 -0.1119  0.0265  0.0974
 7300W        W16780   6.630   9.487   1.994  0.2704 -0.1457  0.0888
 7301W        W16781   8.187   8.761   1.994  0.0980  0.1623 -0.0930
 7302W        W16782   7.964   1.648   1.188  0.2423 -0.0137  0.0713
 7303W        W16783   9.728   0.704   7.686  0.1156  0.2745 -0.2188
 7304W        W16784   8.447   1.460   0.487  0.1287  0.2619 -0.1153
 7305W        W16785   6.129   6.761   0.475  0.0058  0.0185 -0.1057
 7306W        W16786   7.563   4.463   7.860 -0.2895 -0.0501  0.1672
 7307W        W16787   7.670   9.190   8.960 -0.1741  0.2100 -0.2887
 7308W        W16788   5.408   0.970   1.639  0.3089 -0.4966 -0.1628
 7309W        W16789  14.825   3.859   8.357  0.4180 -0.0531  0.1754
 7310W        W16790   9.086   3.349   2.092  0.1299 -0.0860 -0.0211
 7311W        W16791   7.290   4.070   0.612 -0.3055  0.1637  0.0729
 7312W        W16792   1.369   7.249   0.515  0.1552 -0.0677  0.0755
 7313W        W16793   6.290   4.998   1.055 -0.0559  0.3501 -0.1678
 7314W        W16794   7.954   9.193   2.140  0.2471 -0.4880 -0.1565
 7315W        W16795  10.438   8.288   8.404  0.0827  0.2156 -0.0838
 7316W        W16796  11.826   3.846   7.041 -0.2468 -0.1414  0.2268
 7317W        W16797  11.047  12.021   0.744 -0.0273 -0.0770 -0.0378
 7318W        W16798   9.442   1.987   2.060 -0.3318 -0.3070 -0.1475
 7319W        W16799  13.458   7.300   8.270 -0.1354 -0.1663  0.0876
 7320W        W16800   6.065   1.638   2.152  0.0569  0.1805  0.1489
 7321W        W16801   8.489   1.454   2.177 -0.2443  0.0742  0.1036
 7322W        W16802   3.907  14.302   1.230  0.1236 -0.2421  0.0677
 7323W        W16803   6.865   7.054   7.177 -0.0497 -0.0029 -0.2899
 7324W        W16804   8.865   5.695   1.520  0.0233  0.0018  0.1955
 7325W        W16805   9.491   6.263   7.199 -0.0753  0.3460 -0.1556
 7326W        W16806   8.768   2.701   1.585 -0.0184 -0.0788 -0.0186
 7327W        W16807  10.468   3.581   7.723 -0.2438  0.1139 -0.0226
 7328W        W16808  11.187   8.858   8.705 -0.0926  0.1193 -0.1012
 7329W        W16809   7.950   2.879   1.960 -0.2283 -0.0598  0.3200
 7330W        W16810   8.136   7.090   0.951 -0.2201 -0.6528  0.0299
 7331W        W16811   7.535   3.912   7.106  0.2469  0.4152  0.2110
 7332W        W16812  12.238   3.571   0.901  0.1752 -0.0558  0.2135
 7333W        W16813   8.786   6.981   0.466  0.1635 -0.0175 -0.0799
 7334W        W16814   8.297   3.248   1.904 -0.2206 -0.1451 -0.0420
 7335W        W16815   0.177   2.075   1.677 -0.1244  0.1960 -0.1396
 7336W        W16816  11.116   0.714   8.725  0.2981 -0.0812 -0.3639
 7337W        W16817   7.438   6.538   0.710  0.0077  0.0716  0.2940
 7338W        W16818   7.326  13.687   0.758 -0.0032 -0.0742  0.1379
 7339W        W16819   6.136   8.182   6.697  0.0065  0.0342 -0.0808
 7340W        W16820   7.762   0.578   8.063 -0.1289 -0.0547  0.0611
 7341W        W16821  13.270   1.718   6.540 -0.0868 -0.0617 -0.0170
 7342W        W16822   9.417   5.254   7.737 -0.0968 -0.2942 -0.1215
 7343W        W16823  14.707   6.373   7.164 -0.2504  0.1230  0.5060
 7344W        W16824   7.237  14.496   2.669  0.1043 -0.1487  0.1625
 7345W        W16825   7.878   6.342   0.598 -0.2032 -0.0152 -0.2371
 7346W        W16826  11.365   4.701   1.637  0.0254  0.0619 -0.1885
 7347W        W16827   5.903  11.034   2.361  0.2782 -0.1152  0.0694
 7348W        W16828   8.392   6.875   1.854  0.2368  0.2357  0.2325
 7349W        W16829   8.601  14.611   1.853 -0.0175 -0.1632 -0.0470
 7350W        W16830   6.033   6.094   8.984  0.2024  0.1280 -0.0377
 7351W        W16831   4.930  15.389   6.339 -0.2212 -0.0776 -0.2017
 7352W        W16832   8.038  13.997   1.894  0.1573 -0.0376 -0.1732
 7353W        W16833   6.169   4.331   2.388  0.1485  0.2020 -0.1459
 7354W        W16834   6.641   0.733   9.039 -0.0730 -0.0274  0.0736
 7355W        W16835   9.882   8.425   1.275 -0.3326 -0.3001  0.1569
 7356W        W16836   1.193  15.114   0.188 -0.0602  0.2909 -0.1685
 7357W        W16837  11.612   4.866   8.847 -0.0620 -0.2340 -0.1109
 7358W        W16838   3.935   1.810   0.843  0.2445 -0.1885 -0.2668
 7359W        W16839   6.287   4.245   1.947 -0.3375  0.0568 -0.0972
 7360W        W16840   7.079   2.737   0.755  0.1638  0.2966 -0.3098
 7361W        W16841   8.948  11.878   0.694  0.3361 -0.2634 -0.0824
 7362W        W16842  13.392   5.420   8.908  0.1883  0.1537 -0.0747
 7363W        W16843   6.729   7.360   0.236  0.0954 -0.1994  0.1693
 7364W        W16844   9.026   4.245   1.122  0.0700  0.1068 -0.1049
 7365W        W16845  12.752   1.122   8.989 -0.0039 -0.1178 -0.4294
 7366W        W16846   6.135   3.559   6.797  0.2022  0.0664 -0.1190
 7367W        W16847  10.534   4.643   2.672 -0.0088 -0.1545  0.2108
 7368W        W16848   9.718   2.119   1.266 -0.1156 -0.1531  0.2646
 7369W        W16849   6.255   8.879   0.903  0.1503 -0.1412 -0.0262
 7370W        W16850   7.442   6.991   1.933 -0.2526 -0.1207 -0.2284
 7371W        W16851   8.012   3.345   1.102  0.0409 -0.1596 -0.0650
 7372W        W16852   9.634   2.762   1.485 -0.3766  0.3205  0.2337
 7373W        W16853   5.900  12.349   8.689 -0.0485 -0.1476  0.2840
 7374W        W16854   5.656   7.083   8.929 -0.0765  0.0551 -0.0289
 7375W        W16855   6.262   1.757   8.805  0.0653 -0.1034 -0.1464
 7376W        W16856   4.896   5.897   0.635 -0.1672 -0.1917 -0.0677
 7377W        W16857   3.755   2.911   7.454 -0.2135 -0.2895  0.2614
 7378W        W16858   3.947   0.573   1.549 -0.1661  0.2211  0.2128
 7379W        W16859   8.401   9.589   0.231  0.1141  0.2965 -0.1069
 7380W        W16860  15.028   2.526   8.174 -0.1661 -0.1168  0.0468
 7381W        W16861  14.408   8.395   0.824  0.4111 -0.1338  0.2060
 7382W        W16862   8.647   4.392   0.728 -0.2095 -0.0733 -0.1119
 7383W        W16863   5.734   5.387   7.781  0.1417  0.2761 -0.0488
 7384W        W16864   9.003  15.071   0.060  0.3373  0.0209  0.1837
 7385W        W16865   5.542   3.427   1.477 -0.0965  0.2564 -0.0744
 7386W        W16866   5.415   5.583   8.100  0.1719  0.0616  0.2054
 7387W        W16867   4.818   4.315   2.275  0.0634  0.0330 -0.0364
 7388W        W16868   5.999   3.145   2.103  0.0705  0.2732  0.4575
 7389W        W16869   8.063   7.240   1.965  0.0528 -0.1216 -0.3378
 7390W        W16870  11.760   1.006   0.432 -0.0903  0.0110  0.0383
 7391W        W16871  10.704   3.786   0.403  0.1297 -0.0153  0.2571
 7392W        W16872  11.579   7.389   8.699  0.4218 -0.4637 -0.0604
 7393W        W16873   6.835   2.983   8.378  0.1919  0.0654  0.2076
 7394W        W16874   6.179   2.393   9.099  0.0498 -0.0132  0.0018
 7395W        W16875   9.045   6.527   0.466 -0.3449 -0.0200 -0.0805
 7396W        W16876   7.491   0.223   0.774 -0.0706  0.4843 -0.0008
 7397W        W16877  12.964   2.261   0.697 -0.1627  0.1205  0.2495
 7398W        W16878   2.906   0.947   0.368  0.0637  0.0152 -0.1828
 7399W        W16879  11.191   6.110   8.520  0.0438  0.0407 -0.0759
 7400W        W16880  14.949   9.818   8.075  0.0361  0.0918 -0.1370
 7401W        W16881   7.061   7.545   8.595 -0.1337 -0.2928 -0.3414
 7402W        W16882  10.903   6.182   0.592 -0.0537  0.1896 -0.0100
 7403W        W16883   7.520   2.917   0.718 -0.1363 -0.0700 -0.2358
 7404W        W16884  11.725   7.383   8.192  0.2664 -0.1270  0.0833
 7405W        W16885   9.501  14.894   8.442  0.0652  0.2250  0.0527
 7406W        W16886   2.756   8.849   2.063  0.2345  0.0371 -0.0243
 7407W        W16887   4.672   7.596   0.713 -0.1346 -0.0321 -0.1833
 7408W        W16888   8.444   4.447   6.904 -0.1959 -0.1165  0.0248
 7409W        W16889  10.942   5.707   8.919 -0.3754 -0.1251 -0.1779
 7410W        W16890   7.904   9.898   1.207  0.0284 -0.1734 -0.0309
 7411W        W16891   7.655   2.317   2.951 -0.1762 -0.0453 -0.0045
 7412W        W16892   2.274   7.266   8.030 -0.0561 -0.0172  0.3222
 7413W        W16893   6.424   7.844   7.460  0.0544  0.1746  0.0387
 7414W        W16894   7.450  13.120   1.542  0.0231  0.1602  0.0320
 7415W        W16895  13.801   7.890   6.758  0.1854  0.2652 -0.2626
 7416W        W16896  12.856   3.356   8.664  0.2275 -0.1286  0.4721
 7417W        W16897  11.097   8.179   7.565 -0.1885 -0.0814  0.1374
 7418W        W16898  13.578   9.288   8.571  0.5493 -0.0599  0.1509
 7419W        W16899  15.076   7.051   0.003  0.0721  0.2329  0.1127
 7420W        W16900  14.089   2.938   1.979  0.2226  0.2365  0.0279
 7421W        W16901   7.460  10.088   0.085  0.0728  0.1134 -0.0370
 7422W        W16902  12.312   1.492   7.170 -0.0955 -0.1171 -0.0269
 7423W        W16903   1.351   3.629   2.143 -0.1186  0.1491  0.0290
 7424W        W16904  13.304   7.040   8.754 -0.0936  0.1892  0.3592
 7425W        W16905   6.144   8.035   8.249  0.1048  0.2221 -0.2682
 7426W        W16906  10.840   4.792   2.223  0.1811 -0.2054 -0.0382
 7427W        W16907   0.776   5.989   0.372 -0.0199 -0.2518  0.0585
 7428W        W16908   7.244   3.939   1.502  0.2164 -0.0258  0.1202
 7429W        W16909  11.988   5.194   0.538 -0.1758 -0.1370 -0.0553
 7430W        W16910  11.957   4.755   7.814 -0.0826  0.2820 -0.1093
 7431W        W16911  11.532   7.862   0.375  0.0950 -0.4869  0.0171
 7432W        W16912  10.821   8.464   6.721 -0.0493 -0.1951 -0.0439
 7433W        W16913  13.723  14.957   7.541  0.3907  0.0958 -0.0517
 7434W        W16914  12.484  13.800   0.372 -0.0882 -0.0232  0.1210
 7435W        W16915  12.334   8.809   7.277  0.5473 -0.2900 -0.0611
 7436W        W16916  10.635   0.247   1.430 -0.0792 -0.0948  0.0224
 7437W        W16917  12.006   3.948   1.239  0.1845 -0.0934  0.3779
 7438W        W16918  10.002  12.491   7.995  0.2960 -0.2045  0.2059
 7439W        W16919  11.980   9.528   7.860 -0.0509 -0.1343 -0.1956
 7440W        W16920   9.207   4.354   0.130  0.2847 -0.2080 -0.1225
 7441W        W16921   9.551   7.091   0.977  0.0646  0.0236 -0.2623
 7442W        W16922  11.176   3.997   6.216 -0.1733 -0.2473 -0.0195
 7443W        W16923   8.042   3.848   7.129  0.0372 -0.3072  0.2270
 7444W        W16924  11.295   1.477   8.511 -0.1088  0.2912  0.2141
 7445W        W16925   6.264   4.231   1.184 -0.0648  0.3480 -0.1086
 7446W        W16926   6.570   5.449   7.681  0.2563  0.1696 -0.1896
 7447W        W16927  11.632   4.331   1.355 -0.1294 -0.0525 -0.1159
 7448W        W16928   9.988   3.646   8.596 -0.0316 -0.2186  0.0929
 7449W        W16929   8.824   1.297   1.788 -0.3631 -0.1714  0.2425
 7450W        W16930  12.526   4.467   0.720 -0.1118  0.2414 -0.2259
 7451W        W16931  13.230   1.718   0.420 -0.0182 -0.2268  0.3684
 7452W        W16932   9.380   4.277   7.478 -0.1401 -0.1955  0.3435
 7453W        W16933  15.435   5.959   8.963  0.1477  0.0745 -0.0732
 7454W        W16934  12.814   5.421   8.998 -0.2527 -0.1314 -0.2877
 7455W        W16935   9.938   1.262   8.624  0.1132  0.1994  0.2706
 7456W        W16936  11.256  15.331   7.349 -0.1131 -0.1574 -0.1654
 7457W        W16937  10.194  15.451   8.202  0.2115  0.0666  0.0177
 7458W        W16938  12.558   0.016   2.089 -0.3737  0.0677  0.0874
 7459W        W16939  13.174  10.966   6.376  0.1256 -0.1246 -0.2716
 7460W        W16940   1.116   3.747   8.255  0.0267 -0.0323 -0.0008
 7461W        W16941   9.698   5.017   7.337 -0.1619 -0.0576  0.1007
 7462W        W16942   8.249   4.152   8.755 -0.0616 -0.2246 -0.0870
 7463W        W16943  14.158   3.592   2.715 -0.3110 -0.1415 -0.2437
 7464W        W16944  11.939   5.156   0.043  0.0034  0.1525 -0.1329
 7465W        W16945  10.627   5.843   1.904  0.1274 -0.1649 -0.1077
 7466W        W16946   0.850   4.358   0.413  0.0851 -0.1355  0.0940
 7467W        W16947  12.590   4.734   1.780  0.1301 -0.1620  0.2004
 7468W        W16948   8.079   0.857   0.631  0.0898  0.0931  0.0040
 7469W        W16949  11.918  13.053   1.593  0.2795 -0.0930  0.1799
 7470W        W16950  11.358   6.677   0.602 -0.3559 -0.2082 -0.0403
 7471W        W16951   9.082   7.230   7.130 -0.1247 -0.0702  0.1104
 7472W        W16952   0.829  13.292   1.694 -0.1049 -0.0972  0.4523
 7473W        W16953  12.446   2.104   0.853  0.2173 -0.1065 -0.1100
 7474W        W16954   2.361   4.270   8.080  0.0464 -0.1097  0.0359
 7475W        W16955  12.648  10.420   2.838 -0.0097 -0.1370  0.3297
 7476W        W16956   5.315   2.672   2.759 -0.0902 -0.1173 -0.1257
 7477W        W16957   9.661   5.843   0.227  0.0785  0.3148 -0.0992
 7478W        W16958   8.208   4.501   6.480 -0.0325  0.1172  0.2578
 7479W        W16959  11.714   3.497   1.083  0.0121 -0.0292 -0.0102
 7480W        W16960  15.160   3.469   2.323 -0.0334 -0.1025 -0.2397
 7481W        W16961   4.623   3.364   2.713  0.0273  0.0646 -0.0528
 7482W        W16962  10.461   1.960   7.336  0.0595 -0.1041  0.1583
 7483W        W16963  10.102   2.544   0.746 -0.0222 -0.0399 -0.5642
 7484W        W16964   7.057  13.404   7.701 -0.2404  0.1024  0.0726
 7485W        W16965  14.650  12.138   7.969 -0.0250  0.1499  0.1453
 7486W        W16966   6.692   8.822   8.859 -0.0824 -0.1595 -0.0573
 7487W        W16967   1.750   4.114   1.238 -0.1761 -0.1627 -0.2462
 7488W        W16968   9.193   2.764   1.218 -0.0966 -0.0782  0.3438
 7489W        W16969   9.505   4.044   6.996 -0.2220  0.0731 -0.4480
 7490W        W16970  15.214   5.501   6.910 -0.0006 -0.0305 -0.0511
 7491W        W16971  11.905   1.580   7.474 -0.0024 -0.5350 -0.0932
 7492W        W16972   9.692   2.694   8.591  0.1805 -0.2512  0.3178
 7493W        W16973  14.975   1.684   8.977 -0.3077  0.0759 -0.1639
 7494W        W16974  10.405   4.077   0.667  0.0453  0.1967 -0.1441
 7495W        W16975  14.255   6.644   1.551 -0.3046 -0.1037  0.1088
 7496W        W16976  14.948  10.527   8.594  0.1622  0.0523  0.0204
 7497W        W16977   8.840   1.052   2.276  0.2516 -0.0510  0.3181
 7498W        W16978   7.059   3.287   1.932  0.3716  0.2101 -0.1852
 7499W        W16979   8.571   4.535   8.524 -0.0259 -0.0342  0.1751
 7500W        W16980   0.125   2.260   7.687 -0.0171 -0.2269 -0.1573
 7501W        W16981  11.955   1.869   0.020 -0.2071 -0.0455 -0.0559
 7502W        W16982   9.160   9.585   0.858  0.0845 -0.3696 -0.2052
 7503W        W16983   2.117   1.734   2.155  0.0612 -0.0015  0.1074
 7504W        W16984  11.145   3.515   0.252  0.0431  0.1221 -0.3814
 7505W        W16985   8.947   7.743   8.103  0.1572  0.2188  0.2347
 7506W        W16986   6.383   3.218   1.157  0.1051  0.0230  0.1765
 7507W        W16987   0.338   6.728   7.554  0.1971 -0.0255  0.2135
 7508W        W16988  14.250   7.776   8.242 -0.0046  0.0447 -0.2163
 7509W        W16989   2.285   5.489   1.339  0.1146  0.0905 -0.0074
 7510W        W16990  14.753   3.573   0.410 -0.0764  0.0892  0.0388
 7511W        W16991   2.695   1.408   8.713 -0.0018  0.1002 -0.0552
 7512W        W16992   0.978   2.155   1.255  0.2473 -0.0025 -0.0948
 7513W        W16993  11.122   1.811   1.931  0.3403 -0.0198  0.1583
 7514W        W16994   7.376   7.109   8.578 -0.0870  0.1091  0.5263
 7515W        W16995   6.979   4.576   7.885  0.0221 -0.2782  0.0255
 7516W        W16996   7.534  15.219   9.028 -0.2800  0.0510 -0.4227
 7517W        W16997  10.831   1.665   7.710  0.3604  0.5300  0.0281
 7518W        W16998  12.003   9.690   0.365 -0.0271 -0.2333  0.1824
 7519W        W16999   6.445  13.289   8.451  0.0586  0.0252 -0.4518
 7520W        W17000  13.440  13.875   8.573 -0.1376  0.2346 -0.1216
 7521W        W17001  13.720   4.101   1.473 -0.0175  0.1667 -0.3273
 7522W        W17002   6.874   4.925   8.372  0.0410 -0.0064 -0.1431
 7523W        W17003  15.375   5.889   0.853 -0.1150  0.1456 -0.0991
 7524W        W17004  10.165   4.404   0.347  0.1211 -0.1318  0.2538
 7525W        W17005  10.554   7.070   7.206  0.3883  0.1218 -0.0675
 7526W        W17006   8.690   3.594   1.855  0.3309  0.3780 -0.1615
 7527W        W17007  10.184   5.402   8.610 -0.3445  0.3195  0.0776
 7528W        W17008   3.191   7.634   6.598  0.0071 -0.1401  0.2336
 7529W        W17009   0.591   6.520   2.103 -0.1693 -0.0912  0.0903
 7530W        W17010  15.139  13.233   8.954  0.1585 -0.0139  0.0792
 7531W        W17011  10.940   4.175   0.796  0.2908 -0.0944  0.0853
 7532W        W17012  12.833   8.160   0.062 -0.2130  0.1617  0.2821
 7533W        W17013   0.088   5.975   6.932  0.4185 -0.0023  0.0487
 7534W        W17014   8.047  10.465   1.911  0.2979  0.0738 -0.2191
 7535W        W17015  10.215   5.597   2.611 -0.2066  0.1057  0.0904
 7536W        W17016  11.980   7.594   8.874 -0.0937  0.0776 -0.1735
 7537W        W17017   8.737   3.276   6.733 -0.1234 -0.1397  0.0544
 7538W        W17018   8.483   9.250   6.410  0.1809 -0.3190  0.0449
 7539W        W17019   9.797  14.513   1.062 -0.0149 -0.3949 -0.2369
 7540W        W17020   1.164   5.178   5.889  0.0679  0.1841  0.1811
 7541W        W17021  13.320   8.235   7.379  0.1985 -0.0712  0.2416
 7542W        W17022  11.516   2.330   2.543  0.1605  0.0515  0.1391
 7543W        W17023   8.301   7.228   8.378  0.0273  0.2485 -0.2452
 7544W        W17024   5.222   5.922   0.234  0.4088 -0.1655  0.0108
 7545W        W17025   0.493   8.096   2.789 -0.0599 -0.1139  0.1507
 7546W        W17026  10.060   2.995   1.225  0.0863  0.0539  0.0615
 7547W        W17027  13.288   8.303   0.215  0.1552 -0.0038  0.1939
 7548W        W17028  11.370   7.802   7.383  0.0359 -0.0888  0.6276
 7549W        W17029   1.937   9.767   8.963 -0.2116 -0.3341 -0.1989
 7550W        W17030   4.559   9.883   2.059  0.2713 -0.3453  0.3439
 7551W        W17031   2.367   2.659   8.037  0.1754  0.0378  0.0964
 7552W        W17032   1.044   6.415   0.518  0.1854  0.0041  0.0084
 7553W        W17033   8.730   7.584   2.447  0.1286  0.0583  0.1786
 7554W        W17034   8.496   8.476   0.035  0.0265 -0.2513  0.1735
 7555W        W17035   7.487   8.040   0.161  0.1926 -0.1011  0.0491
 7556W        W17036  11.808  10.471   1.001  0.1014  0.0651  0.1247
 7557W        W17037  15.177  15.187   6.740  0.0211 -0.1720  0.1409
 7558W        W17038  11.401   3.572   1.901 -0.0351  0.2030  0.2713
 7559W        W17039  11.153   9.781   6.943 -0.5129 -0.0324  0.0472
 7560W        W17040   0.563   4.572   8.491  0.2574  0.0338 -0.0630
 7561W        W17041  11.178   7.815   8.492 -0.1623 -0.1071  0.1935
 7562W        W17042  14.590   8.692   0.427  0.2168 -0.1404 -0.0933
 7563W        W17043   9.619   0.896   8.523 -0.0482  0.2605 -0.1210
 7564W        W17044  15.428   1.383   1.861  0.0888  0.0235  0.0518
 7565W        W17045   0.248   5.036   8.535  0.0346 -0.0448  0.1108
 7566W        W17046  10.965  11.597   7.173  0.0664  0.1163 -0.1365
 7567W        W17047   9.099   3.981   7.841 -0.0314  0.0176  0.0097
 7568W        W17048   8.307   4.976   8.210  0.1441 -0.3449  0.0618
 7569W        W17049  13.196  13.776   7.559  0.3281  0.4157 -0.0264
 7570W        W17050  13.553   4.516   0.009  0.3115 -0.1295 -0.1304
 7571W        W17051  12.944   4.287   2.590 -0.1815 -0.4207  0.2541
 7572W        W17052  13.294   4.834   8.176 -0.0986  0.1709  0.0707
 7573W        W17053   7.859   0.389   1.417 -0.3011 -0.2997  0.0393
 7574W        W17054   9.359   9.273   7.162  0.0490 -0.2282 -0.0002
 7575W        W17055   1.396   7.402   1.127 -0.5220  0.1346  0.0948
 7576W        W17056  12.595   2.896   0.430  0.2061  0.1832  0.1707
 7577W        W17057   1.684   4.491   0.928 -0.0490  0.3298 -0.2686
 7578W        W17058  12.563  10.365   2.095 -0.1048 -0.3706  0.0562
 7579W        W17059  12.887   4.927   1.247 -0.1773 -0.1080 -0.2309
 7580W        W17060  10.006   8.547   0.612  0.1177  0.0088  0.1940
 7581W        W17061  12.428   4.664   1.243  0.3831  0.2348  0.0095
 7582W        W17062  10.036   6.166   0.332 -0.3835  0.4341  0.0941
 7583W        W17063  12.431   6.139   1.367 -0.0137  0.0274 -0.0643
 7584W        W17064   1.154   7.923   0.357  0.0630 -0.1968  0.2803
 7585W        W17065  14.553   4.065   2.640  0.0079  0.1082  0.1166
 7586W        W17066   0.030   9.788   7.240 -0.0262 -0.0887  0.0012
 7587W        W17067  13.019   3.196   7.599  0.1421 -0.0287 -0.1738
 7588W        W17068  13.513   4.443   1.883 -0.0097 -0.0188  0.0601
 7589W        W17069  12.100  10.558   1.968  0.0446 -0.1081 -0.2083
 7590W        W17070  10.590   0.612   2.111  0.0228 -0.0627  0.1930
 7591W        W17071  12.110   4.285   7.824 -0.0192 -0.0988 -0.0294
 7592W        W17072  12.550   2.527   1.644 -0.0127  0.2855  0.1447
 7593W        W17073  13.155   1.988   2.840 -0.1543 -0.0918 -0.1597
 7594W        W17074  13.775   5.823   1.933 -0.0640 -0.0885 -0.0776
 7595W        W17075  11.969   1.346   2.034  0.1594 -0.2483 -0.0031
 7596W        W17076  13.131   5.161   7.489  0.0544  0.0645 -0.3146
 7597W        W17077   5.398   6.048   7.890  0.0562 -0.1483 -0.3776
 7598W        W17078   1.113   5.402   6.792  0.0249 -0.0394 -0.3509
 7599W        W17079  12.409   2.180   1.318 -0.0075 -0.1052 -0.3348
 7600W        W17080   0.040   6.873   8.326 -0.0781  0.1785  0.0088
 7601W        W17081   7.025   0.340   0.726  0.4163 -0.3523 -0.0757
 7602W        W17082  11.984   1.155   7.320 -0.1132  0.0017  0.3015
 7603W        W17083  13.351   3.828   1.163  0.1006 -0.4026  0.3559
 7604W        W17084  10.008   6.433   7.262  0.1425 -0.0116  0.0074
 7605W        W17085   9.588  14.060   1.758 -0.1240  0.1799  0.1299
 7606W        W17086   7.590   6.694   2.611  0.0534  0.0359  0.1220
 7607W        W17087  15.203  14.771   8.846  0.0437 -0.0599  0.1145
 7608W        W17088  10.442   6.405   0.675  0.1190  0.0070 -0.1680
 7609W        W17089   5.760   5.491   7.127  0.0802 -0.0824  0.0287
 7610W        W17090  10.715   4.065   1.657 -0.1132 -0.2617 -0.0902
 7611W        W17091  15.383   8.506   8.993  0.0070 -0.1719 -0.1651
 7612W        W17092  10.917   3.760   7.464 -0.0722 -0.2792 -0.1967
 7613W        W17093   5.777   6.388   8.614 -0.0290  0.0416  0.2145
 7614W        W17094  11.607   5.250   6.958 -0.0572  0.1698  0.4927
 7615W        W17095   9.846   8.755   8.827  0.0032 -0.0884 -0.0221
 7616W        W17096  10.391   5.706   6.339 -0.2291  0.2175  0.1827
 7617W        W17097   8.206   9.644   2.412  0.1495 -0.0229 -0.0758
 7618W        W17098   9.859   4.559   8.619 -0.0540  0.2175  0.1163
 7619W        W17099  13.010   6.241   0.961  0.0916  0.0366  0.2309
 7620W        W17100  11.272   6.286   0.254 -0.0591  0.1978  0.0900
 7621W        W17101  14.107   1.605   1.549  0.0288 -0.2632  0.0708
 7622W        W17102   5.551   1.568   8.254 -0.1608  0.0222  0.0515
 7623W        W17103   6.773   7.188   1.179  0.2222 -0.0182 -0.0076
 7624W        W17104   7.694  14.452   1.195 -0.1759  0.0495  0.0985
 7625W        W17105   1.033   0.158   0.105 -0.0404  0.3878  0.1365
 7626W        W17106   2.205   6.863   8.866  0.0105  0.1051  0.3952
 7627W        W17107   2.961   3.425   1.902  0.1510 -0.0085  0.1141
 7628W        W17108  14.793   3.979   7.491 -0.1002  0.0686  0.0064
 7629W        W17109  13.851   7.031   2.443 -0.1474 -0.2080 -0.4568
 7630W        W17110  12.101  11.318   0.259 -0.0620 -0.0078  0.1904
 7631W        W17111  13.947   6.310   1.316  0.2502  0.2186  0.0358
 7632W        W17112   0.783   5.003   8.653 -0.3058  0.0253 -0.3076
 7633W        W17113   8.734   2.280   6.241  0.0706 -0.0572  0.0024
 7634W        W17114   3.091   6.566   0.065  0.1342 -0.1690  0.0965
 7635W        W17115  11.979  14.050   8.672 -0.0093  0.3548 -0.0639
 7636W        W17116   2.171   9.051   0.257  0.2575 -0.0434 -0.0903
 7637W        W17117  12.541   7.983   2.095 -0.1397 -0.7070 -0.0432
 7638W        W17118   5.930   3.109   7.014 -0.1471 -0.0930  0.1438
 7639W        W17119   9.789   3.227   1.588  0.1012  0.2584 -0.0753
 7640W        W17120  13.638   8.292   7.037  0.0406  0.1309 -0.1791
 7641W        W17121  14.819   9.188   6.606  0.0205  0.2668 -0.4328
 7642W        W17122   3.766   2.626   8.006 -0.0962 -0.1494  0.0252
 7643W        W17123   3.951   3.848   1.863  0.0492  0.1133  0.0070
 7644W        W17124  14.144   2.639   1.495  0.3070 -0.2077 -0.2469
 7645W        W17125  12.960  10.309   1.308 -0.2427 -0.1525 -0.1861
 7646W        W17126  15.401   5.368   0.793  0.0029 -0.2410 -0.1168
 7647W        W17127  13.115   3.396   2.048 -0.0355  0.0827  0.2177
 7648W        W17128  11.039   5.388   1.431  0.0301 -0.0645  0.3115
 7649W        W17129  13.903   5.676   7.362  0.2121 -0.2851  0.0497
 7650W        W17130   2.957  11.564   2.019  0.0815 -0.2919  0.0613
 7651W        W17131  12.076   3.128   1.214 -0.2112  0.0716  0.0595
 7652W        W17132  12.663   4.227   2.159 -0.2580  0.1823  0.1213
 7653W        W17133  11.158   4.439   8.060 -0.1616  0.1958 -0.0745
 7654W        W17134  10.188   5.589   1.947  0.3740  0.3064  0.0825
 7655W        W17135   6.356   4.102   8.461 -0.1157  0.1057  0.2061
 7656W        W17136  14.465   9.258   8.293 -0.1496 -0.0260  0.0386
 7657W        W17137   0.016   4.274   7.947  0.0718  0.1871 -0.1460
 7658W        W17138   6.244   4.390   8.023  0.0690 -0.2364 -0.1728
 7659W        W17139  12.626   9.823   6.926 -0.1791 -0.2060 -0.0660
 7660W        W17140  10.866   8.619   9.001  0.2527  0.0673  0.0798
 7661W        W17141  13.555   7.203   0.190  0.3745 -0.2632 -0.0135
 7662W        W17142   1.832   6.818   0.678 -0.2444 -0.1108 -0.0817
 7663W        W17143  12.804   1.757   6.814 -0.2754 -0.1775 -0.0916
 7664W        W17144   0.723   4.684   8.997  0.0164  0.1957  0.0414
 7665W        W17145  13.115   4.144   7.484  0.1476  0.0996  0.0806
 7666W        W17146  12.593  11.861   0.813 -0.2200  0.2913  0.1866
 7667W        W17147   3.950   4.929   1.225 -0.4974  0.0156  0.2623
 7668W        W17148  14.110   1.517   7.044 -0.1724 -0.1664 -0.1927
 7669W        W17149  13.655   3.919   6.796 -0.1674  0.3632 -0.0095
 7670W        W17150  10.104   9.283   1.083  0.0343  0.0742 -0.2484
 7671W        W17151  12.366  14.644   1.344 -0.1323  0.0228  0.2015
 7672W        W17152   3.254   5.888   2.454  0.1925 -0.2213  0.0545
 7673W        W17153   0.106  14.712   1.387  0.2919 -0.0259 -0.1534
 7674W        W17154   1.618  14.284   7.361  0.2629  0.0554 -0.0998
 7675W        W17155  11.169   2.081   9.030 -0.0221  0.2229  0.1075
 7676W        W17156   0.968   9.283   1.434 -0.0098  0.3962 -0.0936
 7677W        W17157   6.732   5.698   8.657 -0.1394  0.2603  0.2545
 7678W        W17158  13.617   5.123   7.532  0.0887 -0.3604 -0.0574
 7679W        W17159   2.293   3.064   8.885  0.3350  0.2835 -0.0271
 7680W        W17160  11.597   6.174   0.813  0.1083  0.0414 -0.2071
 7681W        W17161  11.946   8.333   2.756 -0.3194  0.0385  0.0278
 7682W        W17162   1.823   3.906   6.819  0.2310 -0.3233  0.1038
 7683W        W17163   7.915   4.264   6.940  0.1092  0.3379 -0.1751
 7684W        W17164   0.521   6.157   6.856 -0.1271 -0.0335 -0.0431
 7685W        W17165   9.318  10.053   7.155  0.3392  0.1286  0.0746
 7686W        W17166   2.911   5.022   1.807  0.0091  0.0179 -0.0028
 7687W        W17167   1.151   7.700   7.457  0.1950 -0.0591 -0.1351
 7688W        W17168   8.861   8.053   8.475  0.0647 -0.2275  0.0229
 7689W        W17169   1.372   1.206   1.195  0.2653 -0.0546  0.0315
 7690W        W17170   2.115   4.475   1.779 -0.1711 -0.0949  0.0121
 7691W        W17171   3.394   4.878   1.638  0.1373  0.2080 -0.1026
 7692W        W17172   4.675  11.424   1.961  0.4109 -0.2030  0.3044
 7693W        W17173   1.046   3.783   1.310  0.1723 -0.3531  0.1359
 7694W        W17174   0.110   1.856   7.407  0.0985 -0.4716 -0.0051
 7695W        W17175   4.165  14.689   7.511  0.0189  0.0611 -0.1392
 7696W        W17176  13.337   5.867   1.701  0.2952 -0.0928 -0.1079
 7697W        W17177  14.601   2.805   8.122  0.0896  0.0567  0.2033
 7698W        W17178   4.455   4.193   8.811 -0.0208  0.0579  0.2497
 7699W        W17179  10.671   6.520   2.122 -0.0068  0.0228  0.3566
 7700W        W17180  15.365   5.874   8.340  0.3460 -0.0545  0.3995
 7701W        W17181  12.290   7.676   1.723  0.3076  0.1830 -0.0641
 7702W        W17182  11.149   7.386   8.109  0.1188 -0.0127  0.0790
 7703W        W17183  13.252   4.038   1.649  0.1193 -0.0660  0.0278
 7704W        W17184   0.326   4.368   1.223  0.2640 -0.0115  0.0800
 7705W        W17185  10.614   2.830   8.743 -0.0326 -0.3255 -0.2014
 7706W        W17186   4.973   7.655   8.372 -0.3788 -0.0386  0.3119
 7707W        W17187   2.373   4.296   0.505 -0.3343 -0.0544 -0.1139
 7708W        W17188   1.112  11.753   1.377 -0.2155 -0.0715  0.2626
 7709W        W17189   2.917   4.755   8.361 -0.0968 -0.2049  0.1012
 7710W        W17190   0.284   3.280   7.184 -0.1424 -0.2683 -0.1021
 7711W        W17191  13.577   4.639   7.733 -0.0280  0.4154 -0.1583
 7712W        W17192   5.904   7.111   0.791 -0.0847  0.3062  0.1578
 7713W        W17193  14.195   5.639   8.236  0.3436 -0.2114 -0.0095
 7714W        W17194   1.449   4.414   2.594 -0.0428  0.2649 -0.1133
 7715W        W17195  11.460  14.230   1.494 -0.2235  0.1623 -0.6234
 7716W        W17196   7.424   6.602   8.444 -0.2031  0.1049  0.0013
 7717W        W17197  10.727   2.192   7.968 -0.1833  0.2247 -0.0169
 7718W        W17198  14.248   1.222   0.212 -0.0602 -0.1958 -0.0773
 7719W        W17199   6.761   4.946   0.654 -0.0634  0.3478 -0.0672
 7720W        W17200  13.130   9.304   1.747 -0.1614  0.1624 -0.0995
 7721W        W17201   0.314   4.668   6.697  0.1385  0.0589 -0.2150
 7722W        W17202  14.034   6.377   8.721  0.0168  0.0320  0.1264
 7723W        W17203  10.449   7.433   2.099  0.0969 -0.0192  0.0111
 7724W        W17204  13.307   8.126   2.259  0.2200  0.2925  0.0004
 7725W        W17205   1.112   6.551   2.375  0.0308  0.3307 -0.1004
 7726W        W17206   0.071   5.482   8.733 -0.1666 -0.4067 -0.0113
 7727W        W17207   1.989   4.906   0.033 -0.0015  0.1914 -0.3246
 7728W        W17208  15.412   7.199   1.480  0.2817 -0.0689 -0.0021
 7729W        W17209   1.303   6.167   2.045  0.0186 -0.0567 -0.1689
 7730W        W17210  12.820   7.990   7.377 -0.2192 -0.1880 -0.0074
 7731W        W17211  12.738  14.475   2.022  0.3652 -0.2004 -0.1523
 7732W        W17212   7.838   5.354   7.763  0.0443 -0.3473  0.1652
 7733W        W17213   0.474   9.106   7.149 -0.0060  0.0217 -0.1116
 7734W        W17214   8.116   9.361   8.922 -0.3174 -0.0026  0.2294
 7735W        W17215   2.609  10.130   8.624 -0.4006 -0.0146 -0.2834
 7736W        W17216  11.439   8.630   0.856  0.2119  0.1476  0.0356
 7737W        W17217  13.745   7.964   2.533  0.1250 -0.0116  0.1022
 7738W        W17218   1.576   4.284   7.668  0.2646  0.1058  0.1226
 7739W        W17219   3.412   8.586   9.081  0.0182 -0.5618 -0.1527
 7740W        W17220   6.437   5.726   1.615  0.0974 -0.2828 -0.1603
 7741W        W17221   9.802   6.427   6.811  0.0203  0.1214  0.3482
 7742W        W17222   8.232   6.832   1.334 -0.0423 -0.2088 -0.1190
 7743W        W17223   4.278   9.690   2.427 -0.0371 -0.1417 -0.0265
 7744W        W17224   0.399   4.321   7.069  0.2895 -0.1693 -0.1454
 7745W        W17225   3.204  12.873   7.582 -0.0246 -0.3489  0.0906
 7746W        W17226   3.952   7.202   0.180 -0.0159  0.1926 -0.1990
 7747W        W17227   2.411  11.175   7.630  0.2849 -0.0422  0.0346
 7748W        W17228   4.978   1.860   1.708  0.1498 -0.0112 -0.2687
 7749W        W17229   5.277   9.049   1.514 -0.1476  0.0914 -0.1034
 7750W        W17230   4.783   9.581   8.853  0.2242  0.1500 -0.0837
 7751W        W17231   5.834   6.835   7.958 -0.1197 -0.1931 -0.0440
 7752W        W17232  14.573  10.141   0.269  0.5451  0.0181  0.0730
 7753W        W17233  10.047  13.641   8.359  0.0653  0.1633 -0.0542
 7754W        W17234   4.175   7.865   1.914  0.3649 -0.2484  0.2262
 7755W        W17235   0.291  12.515   7.344 -0.4690  0.3260  0.0599
 7756W        W17236  15.405  11.617   8.167 -0.3052 -0.3755  0.0030
 7757W        W17237   4.085   9.116   1.939 -0.1316 -0.0696 -0.1781
 7758W        W17238   7.098   7.955   1.068 -0.2425  0.2524  0.0933
 7759W        W17239   4.245   8.250   7.255  0.0973  0.1411 -0.2046
 7760W        W17240   0.593  10.694   7.101 -0.1286 -0.0084 -0.1273
 7761W        W17241   4.360   8.372   8.094 -0.0452  0.2046 -0.1840
 7762W        W17242   9.673  10.223   8.238 -0.1543  0.0836  0.1592
 7763W        W17243  12.130   4.337   1.535 -0.0272  0.0158  0.1597
 7764W        W17244   2.300   9.695   0.886 -0.0816 -0.2268 -0.1874
 7765W        W17245   1.422   6.354   6.879 -0.2356 -0.0013 -0.0615
 7766W        W17246   3.193   4.749   7.972 -0.0441 -0.1012  0.1736
 7767W        W17247   4.837   5.438   1.865  0.0243  0.1076  0.0289
 7768W        W17248   1.882   5.957   8.297 -0.3035  0.1004 -0.1233
 7769W        W17249   5.663   8.703   0.756 -0.1211 -0.2756 -0.0547
 7770W        W17250   0.740   4.436   6.763 -0.1506 -0.1915  0.0281
 7771W        W17251   0.411   1.507   8.535 -0.2446 -0.0559  0.2635
 7772W        W17252  10.684  13.900   1.582  0.2945 -0.2983 -0.0684
 7773W        W17253  13.799   4.568   0.422 -0.2177  0.2294  0.1352
 7774W        W17254   1.328   5.406   1.127  0.0349  0.0725 -0.1516
 7775W        W17255   6.674   9.484   0.917  0.1570  0.0304  0.4972
 7776W        W17256   0.497   0.781   0.080 -0.2521 -0.1372 -0.0290
 7777W        W17257   6.546  11.236   2.116 -0.1358 -0.3237  0.1733
 7778W        W17258   2.823   9.951   1.689  0.2552 -0.0470  0.1388
 7779W        W17259   4.872  11.519   0.988  0.1589 -0.0869 -0.0649
 7780W        W17260   7.845   7.934   2.615  0.4587  0.0244 -0.1126
 7781W        W17261   1.678  11.455   7.535 -0.0549 -0.1185  0.0264
 7782W        W17262   2.256   8.071   1.693 -0.0363 -0.1902  0.0847
 7783W        W17263   3.552   8.541   8.621 -0.1026  0.2103 -0.0490
 7784W        W17264   4.475   6.761   1.707 -0.1637  0.0811 -0.0904
 7785W        W17265   5.937  10.775   0.434 -0.0388 -0.1581  0.2644
 7786W        W17266   3.516   9.091   6.655  0.2132  0.0223 -0.0023
 7787W        W17267   3.509   6.852   0.184  0.2078 -0.1647 -0.2611
 7788W        W17268   2.859   9.654   0.449  0.2377  0.1357  0.0804
 7789W        W17269   4.999  13.089   7.183  0.0873 -0.0433 -0.0015
 7790W        W17270   0.332   6.141   8.297  0.1991  0.1718  0.0255
 7791W        W17271  14.758   7.004   2.119  0.1783 -0.1006  0.1425
 7792W        W17272  11.258  11.261   8.253 -0.0013 -0.1495 -0.1868
 7793W        W17273   0.310   9.004   8.688  0.3448 -0.0257  0.1437
 7794W        W17274   3.377   5.110   2.083  0.1428 -0.0508  0.0892
 7795W        W17275  14.746  12.136   0.326 -0.0215 -0.1330  0.2082
 7796W        W17276  13.509   7.621   2.253  0.1627  0.2037  0.1053
 7797W        W17277   1.451   9.858   7.915  0.2035 -0.1213  0.1831
 7798W        W17278   4.228   6.844   8.525 -0.0506 -0.2732  0.2645
 7799W        W17279   2.177   0.104   8.480 -0.2586  0.1796  0.1577
 7800W        W17280   2.229  12.546   1.173  0.3243  0.0786  0.0761
 7801W        W17281  14.780   7.298   7.254  0.0634 -0.0070 -0.0990
 7802W        W17282  14.232  10.231   6.138 -0.0282 -0.0986  0.0476
 7803W        W17283   3.962   8.306   8.864 -0.1263 -0.2338  0.0500
 7804W        W17284  12.480   8.427   2.379 -0.1600  0.2824  0.2296
 7805W        W17285   3.998   8.398   1.281  0.1856 -0.3008 -0.0080
 7806W        W17286   3.842  10.844   7.188 -0.3748 -0.2294  0.0153
 7807W        W17287  13.970   7.300   9.046  0.1297  0.0541  0.0729
 7808W        W17288  10.271   6.352   7.707  0.0529  0.0789 -0.1836
 7809W        W17289   1.411  10.745   0.559  0.0426 -0.2966  0.0670
 7810W        W17290   0.027   8.239   7.006  0.1886 -0.2537 -0.0441
 7811W        W17291  15.075   6.058   1.219  0.0343  0.2035 -0.1434
 7812W        W17292  12.510   6.527   2.410  0.0831  0.1744  0.2313
 7813W        W17293   0.195   9.035   0.203  0.0080 -0.1812  0.0962
 7814W        W17294   3.130   3.524   6.969  0.2063  0.1190 -0.1268
 7815W        W17295   2.976  11.271   0.305  0.0478  0.1610  0.0237
 7816W        W17296  15.247   8.177   7.560  0.0752  0.2044  0.2661
 7817W        W17297   3.201   8.403   3.130 -0.1015 -0.0510  0.1059
 7818W        W17298   5.595   7.792   2.079  0.0119  0.0036  0.1585
 7819W        W17299   0.647   6.195   1.281 -0.0506 -0.1233 -0.0178
 7820W        W17300  15.290   9.505   0.194  0.0481 -0.3070 -0.3175
 7821W        W17301   6.378  10.570   7.720  0.1680  0.0400 -0.4236
 7822W        W17302   0.605  13.380   8.892 -0.2369 -0.2461 -0.0203
 7823W        W17303   8.936   5.034   2.122 -0.0205  0.0588  0.2925
 7824W        W17304   7.183   8.960   7.111 -0.2048 -0.3307 -0.2816
 7825W        W17305  11.836   5.389   1.314 -0.0471 -0.0349  0.1663
 7826W        W17306   3.376   4.962   7.159  0.1045  0.0596 -0.1860
 7827W        W17307   3.370  13.002   0.778 -0.1858  0.1536 -0.2569
 7828W        W17308   0.009  12.348   6.987  0.1103  0.0627 -0.0229
 7829W        W17309  10.933   9.928   6.493  0.2148  0.1208 -0.1770
 7830W        W17310   2.568   6.735   1.514  0.1101 -0.0697 -0.0205
 7831W        W17311  15.291  10.615   0.016  0.0547 -0.1822 -0.1397
 7832W        W17312   8.860  15.110   7.040  0.2322  0.4190 -0.0443
 7833W        W17313   1.129   9.789   1.732 -0.1486  0.2872  0.0717
 7834W        W17314   9.112   3.738   0.796 -0.4688  0.1061  0.0729
 7835W        W17315   4.082   0.408   0.335 -0.1350 -0.1717 -0.5675
 7836W        W17316  12.821  12.444   8.970  0.3697  0.0250  0.0110
 7837W        W17317   0.535  12.315   1.777  0.0705 -0.1115 -0.2506
 7838W        W17318  11.812   5.750   7.860  0.2095 -0.0978  0.3231
 7839W        W17319   6.121   8.057   0.058  0.0049 -0.1451  0.1570
 7840W        W17320   4.552  13.531   8.878  0.1154 -0.3248 -0.0692
 7841W        W17321   7.305   5.615   8.112 -0.1319 -0.2046 -0.0825
 7842W        W17322   1.810   4.943   1.841  0.1281 -0.1429 -0.5117
 7843W        W17323  14.664   8.197   1.532  0.0858  0.1490  0.2416
 7844W        W17324   6.027  12.649   0.002 -0.0042  0.2631  0.2482
 7845W        W17325   2.311  14.584   1.924 -0.0400  0.0783  0.2722
 7846W        W17326  15.415   9.566   7.974  0.1094 -0.2725 -0.0266
 7847W        W17327  14.943  10.470   0.407 -0.0594 -0.2179 -0.1621
 7848W        W17328   2.726   7.560   8.053 -0.2286  0.0561  0.0643
 7849W        W17329   1.825  13.886   0.233 -0.1573 -0.0919 -0.1551
 7850W        W17330   3.012   9.919   9.075 -0.0345 -0.0419  0.0217
 7851W        W17331  13.175   9.581   8.578  0.0918  0.0804  0.2443
 7852W        W17332   3.325  10.345   6.920 -0.1841 -0.1139 -0.1618
 7853W        W17333   3.364   1.547   1.570  0.0999  0.2044 -0.3908
 7854W        W17334   3.876   8.879   0.706  0.1263  0.1101 -0.0785
 7855W        W17335  11.726  10.015   0.708 -0.0108  0.0980 -0.2391
 7856W        W17336   1.675   8.984   8.513 -0.1774 -0.3128 -0.1983
 7857W        W17337  12.698  10.870   2.624 -0.1015 -0.1481  0.1429
 7858W        W17338   1.091   6.848   7.128  0.0533  0.2467  0.3726
 7859W        W17339   9.229  12.940   8.797  0.0009  0.1824 -0.1946
 7860W        W17340   3.713   6.989   1.092  0.0287  0.3773  0.1778
 7861W        W17341   0.128  10.652   7.273  0.2518 -0.0547  0.0356
 7862W        W17342   5.467  10.043   1.486  0.1043 -0.0502  0.1629
 7863W        W17343   2.423   5.129   6.905  0.0092  0.0581  0.2138
 7864W        W17344   5.801   7.011   1.812  0.1050  0.0729 -0.0281
 7865W        W17345  15.396  11.296   1.636 -0.0640  0.4823 -0.0381
 7866W        W17346  14.141   7.559   7.168  0.0522 -0.3060 -0.1402
 7867W        W17347   4.305   6.680   7.643  0.0931 -0.2627 -0.0249
 7868W        W17348  12.434   5.688   8.575  0.2048  0.0303 -0.1341
 7869W        W17349  12.563   8.427   0.892 -0.0543 -0.4229 -0.0447
 7870W        W17350   0.832   6.388   0.049 -0.0625 -0.1610 -0.1094
 7871W        W17351   4.879  11.732   0.211  0.1620 -0.0146 -0.0793
 7872W        W17352   4.444   5.120   0.957 -0.1417  0.3107 -0.1598
 7873W        W17353  10.253   8.394   7.915 -0.0859 -0.3756  0.0423
 7874W        W17354  13.804   8.469   1.623  0.1066 -0.0446  0.0597
 7875W        W17355   1.845   7.747   1.445 -0.2459 -0.3497 -0.2663
 7876W        W17356   2.528   0.198   0.817 -0.0130 -0.1914  0.1588
 7877W        W17357   5.626   7.301   2.780 -0.0273  0.1436 -0.0491
 7878W        W17358   2.014  10.316   7.063 -0.1693  0.1403  0.1384
 7879W        W17359  13.312  12.296   7.367  0.0539 -0.0823  0.3602
 7880W        W17360   0.992  10.851   7.966  0.2821 -0.0221 -0.3072
 7881W        W17361   3.667   7.038   8.541 -0.0250  0.1319  0.0936
 7882W        W17362   9.619   9.516   1.009 -0.1157  0.1061 -0.1740
 7883W        W17363   3.626   4.374   8.335 -0.0964 -0.2678 -0.0825
 7884W        W17364   1.298   7.145   8.508 -0.1405 -0.0281 -0.2792
 7885W        W17365  15.011   8.622   1.953  0.0560 -0.2661 -0.1110
 7886W        W17366  13.272   7.716   7.486 -0.0201  0.2214 -0.2138
 7887W        W17367  12.330   5.651   1.432  0.1882  0.2725 -0.2626
 7888W        W17368  14.833   6.579   7.824  0.0145 -0.3113 -0.0708
 7889W        W17369   0.965   6.862   8.743  0.1396 -0.1475 -0.0353
 7890W        W17370  12.876   7.680   8.162 -0.0845 -0.0335  0.0561
 7891W        W17371   7.230  10.329   7.455  0.0032  0.0007  0.3132
 7892W        W17372   0.407   7.257   1.713  0.0613 -0.1868  0.1636
 7893W        W17373  14.842   2.077   1.231 -0.3165  0.1966  0.0953
 7894W        W17374  14.192  10.206   1.142  0.0681  0.0903 -0.2847
 7895W        W17375   2.267   7.292   9.038  0.1742 -0.1486 -0.0302
 7896W        W17376   0.669  10.522   1.664 -0.2029  0.2690  0.0443
 7897W        W17377   0.071   8.573   1.988  0.1585 -0.0543  0.0010
 7898W        W17378   8.516  12.728   0.145 -0.0071 -0.2073  0.1725
 7899W        W17379  12.902   5.014   2.089  0.2480 -0.0268 -0.0945
 7900W        W17380   4.419   9.190   1.569 -0.1488  0.1276 -0.0793
 7901W        W17381   2.818   7.385   1.648  0.2444 -0.1602 -0.0336
 7902W        W17382   1.385  11.687   1.894 -0.2077 -0.0806 -0.0742
 7903W        W17383   4.971   3.609   0.831 -0.3569  0.3400  0.1766
 7904W        W17384   7.416   8.820   7.645  0.2233  0.3838  0.1395
 7905W        W17385   3.140   6.714   2.831  0.2855 -0.1567  0.0218
 7906W        W17386   3.923   6.041   6.824 -0.0159 -0.2931  0.3269
 7907W        W17387  14.541   9.599   0.524 -0.2096 -0.0651  0.0120
 7908W        W17388   7.065   8.478   1.125 -0.0298 -0.1914  0.1899
 7909W        W17389   0.492   8.754   8.254  0.0639 -0.4127 -0.3428
 7910W        W17390   4.725   3.375   1.568  0.1676 -0.0425  0.1687
 7911W        W17391   3.859   8.093   2.272  0.0316 -0.3199 -0.1227
 7912W        W17392  10.183  13.522   8.882  0.0955 -0.0759  0.3036
 7913W        W17393   3.973   8.651   2.274 -0.1569 -0.1678  0.1419
 7914W        W17394   0.817   1.961   6.584 -0.4956 -0.0107 -0.2011
 7915W        W17395   6.084   7.872   1.947 -0.1673 -0.0170  0.0604
 7916W        W17396   0.914  10.602   0.682  0.2214  0.1886  0.1056
 7917W        W17397  12.468   0.607   6.888 -0.2878  0.2383  0.0636
 7918W        W17398  14.688   5.682   2.094 -0.2159  0.2916  0.0865
 7919W        W17399  13.791  10.429   7.426  0.2153  0.1401  0.2559
 7920W        W17400   3.199  10.412   1.157  0.0612 -0.3981 -0.0684
 7921W        W17401   2.216  14.137   7.491  0.2059 -0.1374 -0.1350
 7922W        W17402   6.832  11.987   7.253 -0.1302  0.3606  0.0124
 7923W        W17403   5.165   4.472   8.776  0.2589 -0.1712  0.0549
 7924W        W17404  13.566   9.046   1.701 -0.0223  0.0576 -0.3079
 7925W        W17405   3.959  10.734   2.331  0.1888 -0.1079  0.0724
 7926W        W17406  15.254  10.790   1.593 -0.1873 -0.2396 -0.0181
 7927W        W17407   7.460   5.250   1.757  0.0717  0.2483  0.0604
 7928W        W17408   2.976   7.087   7.416  0.2446  0.1329 -0.0592
 7929W        W17409   2.709  12.752   7.970 -0.2270  0.0305 -0.0815
 7930W        W17410   9.620   9.435   2.706 -0.2088  0.3107 -0.0866
 7931W        W17411   5.195  13.017   1.114 -0.0742 -0.1127  0.1962
 7932W        W17412  15.402  10.123   1.814 -0.1029  0.1541 -0.1134
 7933W        W17413   9.305   2.238   1.465 -0.3141 -0.1401 -0.2339
 7934W        W17414   5.673  12.298   2.162  0.1644  0.3320 -0.3182
 7935W        W17415   5.313  10.897   1.439  0.0941 -0.1854  0.1919
 7936W        W17416   2.543  12.526   7.166 -0.0715  0.0008  0.2035
 7937W        W17417   3.411   6.036   9.097 -0.0576  0.0550 -0.1487
 7938W        W17418   3.927   9.387   1.531  0.0244 -0.2414 -0.0045
 7939W        W17419  10.883  14.798   2.452  0.0010  0.1533  0.0056
 7940W        W17420   2.667   4.203   2.406 -0.1490 -0.0779  0.0845
 7941W        W17421   2.633  10.650   7.674 -0.1920 -0.0887  0.2670
 7942W        W17422   2.999  12.728   1.745  0.4399 -0.1468 -0.0541
 7943W        W17423  13.170   9.005   2.234  0.3278  0.0711 -0.1527
 7944W        W17424   9.640  10.023   1.202 -0.1248  0.1626  0.2352
 7945W        W17425   2.845   2.667   7.797  0.1537 -0.4599  0.0871
 7946W        W17426   2.881   9.197   7.251  0.1295  0.0684  0.2396
 7947W        W17427   6.753   4.734   1.884 -0.0778  0.0632  0.0001
 7948W        W17428   2.903   8.471   0.670  0.1404  0.1661 -0.1747
 7949W        W17429   8.909   8.946   0.299  0.4422  0.1019 -0.2459
 7950W        W17430   4.754  11.929   2.141 -0.1394  0.0315  0.1937
 7951W        W17431   0.760   1.582   2.126 -0.0616 -0.0556 -0.4418
 7952W        W17432  11.072  10.478   8.055  0.1618 -0.0312 -0.2803
 7953W        W17433   9.025  11.916   2.230  0.2663 -0.0278 -0.0137
 7954W        W17434   4.169  10.900   8.465  0.0446 -0.1522 -0.0418
 7955W        W17435   5.592   6.620   7.586 -0.0697 -0.0806  0.0135
 7956W        W17436   9.427   5.841   8.803  0.0749  0.1639 -0.1809
 7957W        W17437   1.089  11.894   7.415 -0.0985 -0.2035 -0.2123
 7958W        W17438  14.784   8.419   0.090 -0.1867 -0.0749  0.0549
 7959W        W17439   5.925   8.400   1.914  0.0893  0.0920  0.0628
 7960W        W17440   6.299   9.377   0.569 -0.0268 -0.0107  0.0024
 7961W        W17441   4.450   7.767   2.318 -0.2117  0.3191 -0.0906
 7962W        W17442   3.709   5.116   6.533 -0.1131 -0.2766 -0.0482
 7963W        W17443   4.055   7.866   8.630 -0.2412 -0.0630  0.0832
 7964W        W17444   6.782   5.742   6.929  0.1581 -0.0512 -0.0843
 7965W        W17445   5.642   5.333   1.620  0.1101 -0.2429  0.0707
 7966W        W17446  14.932   7.216   1.298 -0.0026 -0.0466  0.1997
 7967W        W17447  10.435   6.033   8.050 -0.0721 -0.0490  0.1047
 7968W        W17448   5.821   7.340   0.159 -0.0104  0.3250 -0.0871
 7969W        W17449   7.313   4.892   0.526 -0.3461 -0.0207  0.0802
 7970W        W17450   7.994  10.389   6.899 -0.1360 -0.3255  0.2599
 7971W        W17451   5.362  10.427   1.749 -0.3267 -0.3562  0.0220
 7972W        W17452   1.754  10.597   8.640  0.1889  0.0803 -0.0950
 7973W        W17453   9.298   3.201   7.252  0.0368  0.2835 -0.0340
 7974W        W17454   6.561  11.091   1.065  0.0214  0.1450  0.1833
 7975W        W17455   7.839   7.094   2.502  0.2056 -0.1265 -0.2715
 7976W        W17456   4.440   3.299   8.756 -0.0775  0.2666  0.1833
 7977W        W17457   9.270   7.763   2.362 -0.1169 -0.0035  0.0938
 7978W        W17458   4.904   9.536   7.002 -0.1288 -0.1731 -0.1117
 7979W        W17459   6.530   4.439   0.484 -0.1983  0.0288 -0.2082
 7980W        W17460  10.373   5.871   0.730 -0.3141 -0.1609  0.4663
 7981W        W17461   6.397   4.764   0.020 -0.0656  0.2349 -0.0899
 7982W        W17462   4.684   7.851   2.790  0.3686  0.2480 -0.0589
 7983W        W17463   7.817  12.021   8.421  0.1657  0.1561 -0.2405
 7984W        W17464   4.960  10.392   8.704  0.1382  0.4245  0.5392
 7985W        W17465   6.065   9.305   6.641 -0.0027  0.1881  0.0182
 7986W        W17466   1.142  10.193   8.789  0.0321  0.0486 -0.5465
 7987W        W17467   3.673   9.804   8.592 -0.2939  0.0562 -0.2498
 7988W        W17468   9.300   8.292   2.363  0.2357 -0.0960  0.2134
 7989W        W17469   3.413   8.383   1.013 -0.0155 -0.1560 -0.2309
 7990W        W17470  12.279   5.703   7.869 -0.0949  0.4593  0.0727
 7991W        W17471   5.804   2.733   0.022 -0.2412 -0.0638 -0.1438
 7992W        W17472   8.064   8.102   6.707 -0.1580  0.0702  0.0886
 7993W        W17473   6.010   8.128   7.315 -0.2143  0.0894 -0.1826
 7994W        W17474   4.302   7.863   8.205 -0.1372  0.2161 -0.0121
 7995W        W17475   0.789   9.868   6.890 -0.0585 -0.1009 -0.4050
 7996W        W17476  14.862   7.527   0.347 -0.0978  0.1239  0.0076
 7997W        W17477   3.929   5.186   2.735  0.1568  0.5217 -0.0098
 7998W        W17478   4.957   6.934   2.032  0.2314 -0.2505  0.1282
 7999W        W17479   8.286   8.710   1.492 -0.0433  0.0791  0.1676
 8000W        W17480   3.770   9.019   7.592 -0.0099 -0.0403  0.2386
 8001W        W17481  13.292   8.293   1.623 -0.0333  0.2214  0.1958
 8002W        W17482  13.627  10.897   1.001  0.0642  0.2140  0.1955
 8003W        W17483   4.019   1.679   2.369  0.1105  0.3494  0.0125
 8004W        W17484   4.416  10.023   2.904  0.1106 -0.0416  0.1447
 8005W        W17485   1.349   3.061   0.021 -0.0389 -0.1979  0.1932
 8006W        W17486   3.979   9.368   0.950  0.1007  0.1220 -0.3466
 8007W        W17487   2.817   8.026   2.401 -0.0144 -0.0391  0.1683
 8008W        W17488   8.607  11.764   8.810  0.2471 -0.1298 -0.0057
 8009W        W17489   3.412  12.310   7.459  0.1639 -0.1029 -0.0919
 8010W        W17490   7.238   6.903   8.109 -0.1485 -0.1499  0.1502
 8011W        W17491   8.573   4.826   1.717  0.1170 -0.0441 -0.1064
 8012W        W17492   2.392  15.264   1.110 -0.2746  0.1305 -0.1820
 8013W        W17493   2.714   2.206   1.258  0.1732  0.1565 -0.0918
 8014W        W17494   3.769   5.953   2.663  0.5988 -0.1760 -0.1949
 8015W        W17495   4.098  12.731   8.449  0.1565 -0.1664 -0.0483
 8016W        W17496   2.685   5.899   8.450 -0.2951 -0.0356 -0.1359
 8017W        W17497   2.948  10.450   7.238 -0.2527 -0.1091 -0.0884
 8018W        W17498   3.394   2.050   1.765  0.1634 -0.0793  0.2105
 8019W        W17499   4.773   7.630   7.967  0.2171  0.0101 -0.0455
 8020W        W17500   7.965   7.319   0.334  0.3248 -0.0193 -0.1001
 8021W        W17501   8.344   5.235   7.739 -0.1324  0.1989  0.2131
 8022W        W17502  14.811   2.256   8.950  0.2919 -0.2718  0.3126
 8023W        W17503   6.487  10.287   1.279 -0.2133 -0.0979 -0.1626
 8024W        W17504   3.060   8.885   6.815  0.3206  0.0392 -0.2129
 8025W        W17505   3.308   5.338   1.511 -0.0104  0.2858  0.0792
 8026W        W17506   5.193   6.971   0.417  0.1344 -0.1763 -0.2499
 8027W        W17507   6.146   8.606   0.001 -0.0140 -0.1447 -0.0797
 8028W        W17508   6.065   7.491   2.373 -0.0525  0.0928  0.4199
 8029W        W17509   3.242  11.342   2.348  0.3192  0.0328 -0.0456
 8030W        W17510   1.031   7.882   7.021 -0.2167  0.2337  0.1930
 8031W        W17511   5.843  13.210   7.789  0.0079  0.1027  0.0235
 8032W        W17512   6.731   8.610   2.232  0.1055  0.0732 -0.0965
 8033W        W17513   2.166   6.191   0.432  0.2175  0.0825  0.2759
 8034W        W17514   4.171   7.250   1.827 -0.2749 -0.0215 -0.0399
 8035W        W17515   1.274  10.576   9.067 -0.0340 -0.0897 -0.0676
 8036W        W17516   6.991   9.443   1.689 -0.0650  0.0384  0.0078
 8037W        W17517   3.666   7.528   8.546  0.0778  0.1381  0.1551
 8038W        W17518   5.641   6.270   1.163  0.2849  0.0857 -0.1260
 8039W        W17519  14.551  10.838   8.460  0.0165 -0.4075  0.1496
 8040W        W17520   1.564   8.837   6.710  0.0107 -0.0170  0.4523
 8041W        W17521   8.712  11.561   7.291 -0.0615  0.1864 -0.2388
 8042W        W17522   0.955   9.538   2.728  0.1337 -0.1099  0.2163
 8043W        W17523   9.096   7.241   2.226 -0.0666  0.1957 -0.2270
 8044W        W17524   0.534   0.194   1.621  0.1344  0.0377 -0.0419
 8045W        W17525   0.840   9.317   8.326  0.0105 -0.0771 -0.0881
 8046W        W17526   8.226   7.412   8.974 -0.0332  0.2074 -0.3873
 8047W        W17527   4.735  11.035   7.081 -0.0994 -0.0276 -0.0113
 8048W        W17528  10.568   2.228   6.378 -0.0179  0.1853 -0.0312
 8049W        W17529   1.528  14.642   6.972  0.2092 -0.1479 -0.0289
 8050W        W17530   5.240   5.947   1.009  0.1311  0.3884  0.0169
 8051W        W17531   1.243   8.636   8.525 -0.1155  0.0240 -0.2466
 8052W        W17532   3.930   6.291   8.957 -0.3028  0.2574 -0.4959
 8053W        W17533   4.360  10.783   7.340 -0.1842 -0.1896  0.1101
 8054W        W17534   5.961  10.639   1.079 -0.0836  0.1411 -0.1000
 8055W        W17535   5.734   9.622   1.099 -0.4068 -0.1710 -0.3465
 8056W        W17536   5.421   8.445   1.524 -0.0810  0.0508  0.2145
 8057W        W17537   7.940   7.865   2.079 -0.0678  0.1626  0.3892
 8058W        W17538   4.583   7.951   7.686 -0.2814 -0.2350 -0.2800
 8059W        W17539   3.651   5.029   8.036 -0.1472  0.1078  0.0682
 8060W        W17540   3.541  10.879   1.998  0.2384  0.0086 -0.3059
 8061W        W17541   4.688   8.301   0.350 -0.2106  0.0539  0.2535
 8062W        W17542   8.028  13.915   1.364  0.0449 -0.0011 -0.2425
 8063W        W17543   9.692   8.655   2.229 -0.0389  0.1181 -0.0234
 8064W        W17544   7.658   4.729   6.703 -0.3251  0.0782 -0.3666
 8065W        W17545   8.712   4.687   6.130  0.0516  0.0118 -0.1299
 8066W        W17546  12.046   6.373   7.170  0.0247  0.0730 -0.0940
 8067W        W17547   9.851   0.396   9.051 -0.0921 -0.1447 -0.0665
 8068W        W17548   9.544  12.153   1.992  0.2086 -0.0241 -0.4188
 8069W        W17549   4.296  12.300   0.660  0.3989  0.1378 -0.3830
 8070W        W17550   8.950   5.821   0.563  0.1853 -0.1370 -0.0097
 8071W        W17551   7.587  11.630   1.116  0.1486  0.1191  0.2658
 8072W        W17552   5.809   4.149   7.953  0.0046 -0.1110  0.0415
 8073W        W17553   9.875  11.842   6.816  0.2286  0.2236  0.2644
 8074W        W17554   0.657   5.272   7.293  0.3751  0.1183 -0.2665
 8075W        W17555   2.137   7.057   1.502 -0.1095 -0.2899  0.1615
 8076W        W17556   8.734   3.499   8.696  0.0800  0.0320  0.1184
 8077W        W17557   4.767   2.228   7.566 -0.0522  0.0797 -0.2678
 8078W        W17558   0.553  12.924   8.104  0.0494  0.4697  0.4172
 8079W        W17559   9.884   1.223   7.551 -0.2689 -0.1352  0.1267
 8080W        W17560   7.541   5.738   6.794 -0.3974 -0.2700  0.1197
 8081W        W17561   5.438   6.460   8.143  0.0503  0.2721 -0.0226
 8082W        W17562   8.586   9.732   0.816  0.0263 -0.0163 -0.0827
 8083W        W17563   8.109   3.107   7.939  0.0892  0.0040 -0.4355
 8084W        W17564   7.014   9.009   1.485 -0.1070 -0.1618  0.2982
 8085W        W17565   7.050   9.983   8.894  0.0810  0.3746 -0.3809
 8086W        W17566   6.458   2.409   1.952 -0.1821 -0.4900  0.2561
 8087W        W17567   4.244   6.295   8.551 -0.1763  0.1222  0.2954
 8088W        W17568   1.183   6.238   8.603 -0.0267 -0.1850  0.2253
 8089W        W17569   3.502   8.008   0.004 -0.0266  0.0222  0.0563
 8090W        W17570   5.250   9.562   9.059 -0.1491 -0.0211 -0.2174
 8091W        W17571   6.095   1.394   0.983  0.1778  0.2313 -0.2591
 8092W        W17572   5.776   6.160   2.657 -0.1996  0.0544  0.0769
 8093W        W17573   3.362  12.923   8.633  0.0880 -0.3440  0.0993
 8094W        W17574  12.609  11.210   0.069  0.0896 -0.3080  0.0940
 8095W        W17575   0.471   7.241   0.076  0.1007  0.3388  0.2327
 8096W        W17576   3.593   5.736   1.606 -0.2449 -0.0156 -0.2869
 8097W        W17577   1.705   5.784   1.750 -0.3218  0.1172 -0.3296
 8098W        W17578   0.433   6.730   1.284  0.0337  0.1109 -0.0830
 8099W        W17579   6.577  12.241   0.286 -0.0037  0.0309 -0.1410
 8100W        W17580   8.216   4.234   0.340  0.1223 -0.0402 -0.0383
 8101W        W17581   5.671   7.460   1.697 -0.0672 -0.0731 -0.2273
 8102W        W17582   4.299  10.548   0.702 -0.1794  0.1925  0.3085
 8103W        W17583   4.301   8.542   0.583  0.1459  0.4256 -0.1229
 8104W        W17584   9.910  13.120   2.134  0.1260 -0.1859  0.1075
 8105W        W17585   5.694  13.287   6.484  0.1596 -0.1196 -0.1392
 8106W        W17586   8.255   9.141   1.144 -0.2126  0.0067  0.0219
 8107W        W17587   5.261   7.594   1.378  0.0109 -0.0078 -0.0662
 8108W        W17588   6.158  11.685   0.246  0.2554 -0.1802  0.1433
 8109W        W17589   1.332   6.032   0.394  0.2756  0.2568 -0.0998
 8110W        W17590   4.637   7.168   1.125  0.0267 -0.2144 -0.0834
 8111W        W17591   5.926  12.748   6.513  0.0554 -0.1788 -0.0972
 8112W        W17592   3.998  12.632   1.626  0.0095 -0.0880  0.1082
 8113W        W17593  11.522   9.244   8.821 -0.0905  0.3510 -0.0547
 8114W        W17594   6.126  11.092   8.352 -0.1517  0.1217  0.1728
 8115W        W17595   5.031   5.310   8.397 -0.0713 -0.1374  0.3048
 8116W        W17596  11.114   6.299   1.037 -0.2106 -0.4022 -0.1145
 8117W        W17597  12.559   6.404   7.252 -0.1432  0.1376  0.4174
 8118W        W17598   6.258  10.368   2.562 -0.3064  0.0059  0.1720
 8119W        W17599   3.435  10.600   0.794  0.1357  0.0134  0.1192
 8120W        W17600   9.047   6.420   1.942  0.2341  0.1801 -0.0045
 8121W        W17601  13.572  11.003   2.117 -0.2211  0.1004 -0.1092
 8122W        W17602   6.337   2.850   1.752  0.1185  0.0685  0.0229
 8123W        W17603   7.321   9.600   8.884  0.0952  0.4659  0.0267
 8124W        W17604  10.126   9.780   0.887  0.2130 -0.0649 -0.1124
 8125W        W17605   3.691  14.718   7.229 -0.1348 -0.0926  0.4524
 8126W        W17606   8.824   7.491   1.526 -0.1787 -0.0733  0.3966
 8127W        W17607  13.167  10.033   8.399  0.3970 -0.0304 -0.0955
 8128W        W17608   9.495  10.262   8.740  0.0932  0.1699 -0.2823
 8129W        W17609   2.447   8.658   0.428 -0.2421 -0.0963  0.2829
 8130W        W17610   5.288   8.535   8.274 -0.0844 -0.1316 -0.4659
 8131W        W17611   8.437  13.861   1.113 -0.0847 -0.1840 -0.2031
 8132W        W17612   4.290   9.296   8.970 -0.0588  0.5094  0.2785
 8133W        W17613   5.399  10.236   8.448  0.0420  0.0503 -0.1889
 8134W        W17614   3.526  10.505   7.887 -0.0908  0.1363 -0.0063
 8135W        W17615   8.631   3.026   1.035 -0.1268 -0.3135 -0.1801
 8136W        W17616   7.957  13.199   7.907  0.1324  0.1870 -0.4156
 8137W        W17617   8.442  10.053   1.170 -0.0019 -0.0637 -0.0420
 8138W        W17618   3.243   7.994   2.276 -0.0794 -0.2668  0.1649
 8139W        W17619   5.794  13.723   0.766  0.0025 -0.2191 -0.0450
 8140W        W17620   9.589   7.623   1.984  0.0644 -0.1217 -0.2843
 8141W        W17621   6.652   7.726   1.173 -0.0122 -0.3240  0.2092
 8142W        W17622   7.408   5.162   6.832  0.3540 -0.0938 -0.0422
 8143W        W17623   4.625   7.035   7.419 -0.0736 -0.1023  0.1320
 8144W        W17624   7.126   9.369   1.111 -0.0702  0.1637 -0.1839
 8145W        W17625   5.277   8.019   8.103  0.0887  0.0256 -0.0994
 8146W        W17626   3.211   8.278   0.330  0.1775  0.3989  0.0581
 8147W        W17627   9.166   7.664   6.764  0.0396  0.3599 -0.1898
 8148W        W17628   2.442   9.860   1.417  0.0179  0.1168  0.0948
 8149W        W17629   9.580   8.337   8.966 -0.0121 -0.5052 -0.1988
 8150W        W17630  10.110   8.713   1.586 -0.0496  0.4027 -0.2242
 8151W        W17631  10.061  11.005   2.230  0.2798 -0.1785  0.0270
 8152W        W17632   9.275   8.184   1.904 -0.5568  0.0970  0.1830
 8153W        W17633   2.558   7.678   0.894  0.1278 -0.2459  0.0680
 8154W        W17634   6.634   0.024   8.336  0.1852  0.0041 -0.4687
 8155W        W17635   8.477   7.853   2.058  0.0203  0.0464 -0.0379
 8156W        W17636   6.129   3.391   8.841  0.3886  0.1192 -0.0671
 8157W        W17637  11.798   3.981   0.206 -0.2920  0.1279  0.2458
 8158W        W17638  10.529  10.580   0.422  0.4726 -0.5089 -0.0378
 8159W        W17639   5.549   4.678   0.499 -0.3204  0.0780  0.1362
 8160W        W17640   6.421   9.745   1.361  0.1319 -0.1731  0.0004
 8161W        W17641   4.249   4.684   8.768  0.2606 -0.1379 -0.1548
 8162W        W17642   1.635   5.482   0.719  0.3961 -0.0898  0.1407
 8163W        W17643   2.722  12.355   2.281 -0.2202 -0.0543  0.1599
 8164W        W17644   6.042  10.956   7.832  0.0768  0.2545  0.1055
 8165W        W17645  13.048  10.013   2.883 -0.1881 -0.2244 -0.0026
 8166W        W17646   3.056   5.076   7.565 -0.3799 -0.1490  0.0100
 8167W        W17647   2.078  11.644   0.301  0.0368  0.1606  0.1461
 8168W        W17648   6.278   8.701   2.514 -0.0574  0.0395  0.0927
 8169W        W17649   5.885   9.264   8.435 -0.0813  0.2502 -0.3005
 8170W        W17650   0.776  12.742   0.870  0.1956 -0.1989  0.2999
 8171W        W17651   8.077   9.970   7.725  0.0451 -0.4472  0.1164
 8172W        W17652   2.885   3.661   1.065  0.0075 -0.1539  0.1717
 8173W        W17653   8.683   9.818   1.507  0.1410  0.3097 -0.2213
 8174W        W17654   8.195  10.450   1.366 -0.0555  0.1512 -0.1989
 8175W        W17655   5.173  10.838   0.510  0.1541  0.0201  0.1394
 8176W        W17656  14.131   4.628   8.524 -0.2720 -0.0907  0.1395
 8177W        W17657   8.065   6.760   2.204  0.0852  0.1123 -0.0547
 8178W        W17658   8.526   4.076   1.116  0.0675  0.1984 -0.2983
 8179W        W17659   0.465   6.756   6.441 -0.1623 -0.0651  0.0816
 8180W        W17660   7.309   1.440   7.034 -0.0130  0.0057  0.0049
 8181W        W17661   2.714   7.197   2.454 -0.2090 -0.0288 -0.1942
 8182W        W17662   9.066   1.851   1.744  0.0215  0.2440 -0.2102
 8183W        W17663   8.477   5.158   0.406  0.1708  0.0786  0.2254
 8184W        W17664   8.522   5.849   8.364  0.1370 -0.1858  0.2355
 8185W        W17665   2.820   9.679   8.591 -0.0865 -0.0098 -0.1184
 8186W        W17666   6.521   6.450   0.624 -0.3016 -0.1702  0.0539
 8187W        W17667   8.807   9.379   0.553  0.1560  0.0934 -0.1251
 8188W        W17668  10.413   8.963   2.533  0.0059 -0.0493 -0.0187
 8189W        W17669  11.129   6.403   1.630  0.3557  0.0005 -0.1636
 8190W        W17670   4.356  11.857   1.743  0.2609 -0.1109  0.0337
 8191W        W17671   3.034  13.671   1.305  0.0236  0.2024  0.2052
 8192W        W17672   8.738   9.337   1.066 -0.0005  0.0188  0.1424
 8193W        W17673   7.089   3.159   1.024 -0.1151 -0.2174 -0.0032
 8194W        W17674   2.288   8.016   0.629 -0.1156  0.1021  0.3095
 8195W        W17675   9.315   9.740   8.705 -0.0058 -0.3726 -0.3081
 8196W        W17676  13.828   5.432   6.903  0.0279 -0.0196 -0.1762
 8197W        W17677   7.874   6.433   1.258 -0.1993 -0.1080 -0.3137
 8198W        W17678   8.440   9.016   0.104  0.0922  0.0111  0.3088
 8199W        W17679  11.927   8.895   1.545  0.0848 -0.0254 -0.3173
 8200W        W17680   8.268   8.335   7.850 -0.1358  0.2267  0.0944
 8201W        W17681   9.408   7.975   8.730  0.0810  0.2335  0.0775
 8202W        W17682   4.397   6.923   9.065 -0.0634 -0.1412  0.1183
 8203W        W17683   8.968  11.750   2.675  0.4646  0.0991  0.0625
 8204W        W17684   8.240   2.691   0.003 -0.0590  0.2472  0.1683
 8205W        W17685  10.884   4.712   7.697  0.1428 -0.2054  0.0269
 8206W        W17686  13.515   4.963   8.629 -0.2891 -0.0170 -0.1706
 8207W        W17687   9.411   7.723   8.277 -0.0201 -0.3175  0.1778
 8208W        W17688   7.058   6.427   8.074 -0.2930  0.1123 -0.2539
 8209W        W17689   8.298  12.900   8.786 -0.2528  0.0263  0.0427
 8210W        W17690   6.908   8.165   2.129  0.4408 -0.1445  0.0762
 8211W        W17691  10.948   4.894   0.487  0.1043 -0.0385  0.1404
 8212W        W17692   9.274  13.263   6.678 -0.3836  0.0976  0.3571
 8213W        W17693   9.989  13.675   7.802 -0.1557  0.1866 -0.1657
 8214W        W17694   4.541  10.907   1.778  0.4345 -0.1080 -0.2533
 8215W        W17695   6.489   1.434   1.895 -0.3324 -0.1528  0.2017
 8216W        W17696   3.576   5.904   7.167 -0.0684 -0.1545  0.0568
 8217W        W17697   5.681   3.467   0.612 -0.1280 -0.1209 -0.0769
 8218W        W17698   0.566   2.077   0.237  0.4387  0.0050  0.1422
 8219W        W17699   5.707   7.575   1.137 -0.0329  0.1809 -0.0197
 8220W        W17700   4.272  10.088   5.989  0.0626 -0.2327  0.4374
 8221W        W17701   9.336   2.039   8.058 -0.0547 -0.2557  0.1233
 8222W        W17702  11.321  13.157   1.541 -0.2172 -0.2598  0.2996
 8223W        W17703  13.046   6.882   7.832  0.1066 -0.0594 -0.1586
 8224W        W17704   5.387   7.670   2.474 -0.1978 -0.0964  0.1599
 8225W        W17705  10.221   6.819   7.527 -0.0544  0.2334  0.1028
 8226W        W17706   4.197  11.889   8.812  0.3908  0.0697  0.2501
 8227W        W17707   3.748  10.711   0.314 -0.0403  0.0652 -0.0064
 8228W        W17708   0.093  13.337   7.446  0.0026  0.0511 -0.0383
 8229W        W17709  12.036   2.473   8.326 -0.2967 -0.1206  0.1569
 8230W        W17710  11.017   3.855   1.356 -0.1258  0.2659  0.1973
 8231W        W17711   7.936   6.062   8.926 -0.0575 -0.2052  0.2907
 8232W        W17712  11.521   6.141   1.900  0.1921 -0.1153  0.2133
 8233W        W17713   7.844   7.952   7.151  0.4525 -0.1992 -0.2813
 8234W        W17714  11.296   8.295   8.633 -0.1175  0.3305  0.1690
 8235W        W17715   4.680  12.230   7.024 -0.0067  0.2216 -0.2092
 8236W        W17716   7.059   5.871   2.858 -0.0334  0.0252 -0.0089
 8237W        W17717  11.527   7.763   2.201  0.3018  0.0458  0.0757
 8238W        W17718   7.864   8.477   1.666 -0.1141 -0.0062  0.0562
 8239W        W17719   5.845  10.939   1.407  0.3507  0.0988 -0.1807
 8240W        W17720   2.860   7.896   0.039 -0.0283  0.1782 -0.1104
 8241W        W17721  15.182   6.522   9.011 -0.4234 -0.1379 -0.1851
 8242W        W17722   7.016   9.113   7.614  0.1743 -0.2875 -0.0324
 8243W        W17723   4.104  13.303   7.493  0.3106  0.2435  0.0636
 8244W        W17724  15.067   4.688   2.218 -0.0273  0.1197  0.1280
 8245W        W17725   6.775   9.137   0.537 -0.0272  0.1202 -0.1477
 8246W        W17726   5.714   2.295   8.895  0.0239  0.0736  0.0877
 8247W        W17727   0.390   5.905   8.695  0.1263  0.3538  0.2768
 8248W        W17728   5.226  11.936   1.164  0.0219 -0.0869 -0.3526
 8249W        W17729   7.951   7.617   8.357 -0.0680 -0.1674  0.0792
 8250W        W17730   9.085   7.140   1.293 -0.3954  0.1823  0.0697
 8251W        W17731   8.598  10.711   7.212 -0.3070 -0.3386 -0.0082
 8252W        W17732   9.448   6.083   1.168 -0.2196  0.1036 -0.0363
 8253W        W17733   5.390  14.644   2.753  0.2325 -0.3257  0.1510
 8254W        W17734   5.545  10.353   2.278 -0.2655 -0.3296 -0.0726
 8255W        W17735   5.405  13.008   0.612  0.0527 -0.0633  0.1421
 8256W        W17736   8.612   8.499   8.607 -0.2096 -0.1299 -0.0208
 8257W        W17737   0.314   2.970   0.475  0.0079  0.0915  0.0862
 8258W        W17738  13.527   5.783   0.134  0.1374  0.0317 -0.0882
 8259W        W17739   6.044   6.535   1.512 -0.0671  0.1785  0.3876
 8260W        W17740   9.889   7.905   1.133  0.2524  0.0444 -0.2282
 8261W        W17741  10.956  12.608   8.348 -0.3766  0.1943  0.1821
 8262W        W17742  13.403   9.450   1.329 -0.0513 -0.1360 -0.2147
 8263W        W17743  14.590   7.810   7.049  0.0995 -0.3382  0.1072
 8264W        W17744   9.443   9.528   1.891 -0.1819 -0.1003  0.0095
 8265W        W17745  14.394  13.813   7.457 -0.2121 -0.1630  0.0081
 8266W        W17746   2.364   8.017   0.105 -0.0328 -0.0964 -0.2835
 8267W        W17747   4.741   9.606   3.026 -0.0350  0.0393  0.0150
 8268W        W17748   2.734   7.952   1.838  0.0726 -0.3984 -0.2933
 8269W        W17749   6.117   7.512   8.314  0.1267 -0.1398  0.1741
 8270W        W17750   6.907   9.997   1.191  0.1446 -0.0432 -0.0588
 8271W        W17751  13.379  11.706   7.502 -0.0252  0.0386 -0.2701
 8272W        W17752   9.035   7.600   8.620 -0.2563  0.2766 -0.0804
 8273W        W17753   7.464  13.469   0.355  0.1601 -0.0989 -0.2398
 8274W        W17754   4.774  10.962   1.365  0.1794  0.2047 -0.0978
 8275W        W17755   8.780   8.808   1.893  0.0034 -0.0601  0.3120
 8276W        W17756  10.106   9.893   1.447 -0.0057  0.3963 -0.1797
 8277W        W17757   1.331   4.554   0.558 -0.1514 -0.0766  0.2327
 8278W        W17758   9.820  10.703   2.595  0.3470  0.1592 -0.2875
 8279W        W17759   3.536  11.020   1.031 -0.2495  0.0596  0.0322
 8280W        W17760  14.468   4.580   0.368 -0.1476 -0.1272  0.3170
 8281W        W17761   9.789   8.043   8.095 -0.2080  0.0782  0.0290
 8282W        W17762   7.501  10.024   8.677  0.2541 -0.0637 -0.1268
 8283W        W17763   8.949   4.575   7.077 -0.3248 -0.1678  0.0586
 8284W        W17764   8.824   7.007   7.573 -0.0570 -0.4196 -0.0698
 8285W        W17765   8.735   8.410   8.107 -0.2945  0.1055  0.1541
 8286W        W17766   6.724   9.277   6.709  0.0139 -0.0536 -0.1188
 8287W        W17767   7.570   8.189   1.182 -0.1355  0.0484 -0.2429
 8288W        W17768   4.227  11.940   6.554  0.1433  0.0407 -0.1878
 8289W        W17769   4.400   8.594   0.074 -0.1453  0.1774  0.1177
 8290W        W17770   7.180   5.559   7.156 -0.2973 -0.2963 -0.0785
 8291W        W17771   5.315   8.491   8.787 -0.1030  0.0891  0.1932
 8292W        W17772   9.907   7.466   0.891  0.2926 -0.1793 -0.2168
 8293W        W17773   4.712   8.882   1.218 -0.2280 -0.1163 -0.1547
 8294W        W17774  10.154   8.787   2.135 -0.0784  0.4914 -0.2306
 8295W        W17775   6.567   3.798   8.833  0.1112 -0.0489  0.2836
 8296W        W17776  10.747   9.319   1.644 -0.0860 -0.0860 -0.1054
 8297W        W17777  11.542   6.823   2.431 -0.4080 -0.2148  0.0161
 8298W        W17778   9.406  11.074   0.559 -0.2279 -0.0280 -0.2013
 8299W        W17779  14.944   9.284   1.867  0.0607  0.1186  0.3567
 8300W        W17780   9.493   7.328   8.582  0.0470 -0.1743  0.0277
 8301W        W17781   3.968   7.902   1.344 -0.1001  0.2557 -0.1337
 8302W        W17782   8.178  15.126   0.586 -0.0306  0.2222  0.1575
 8303W        W17783   4.448   6.406   0.825  0.1043  0.1828 -0.0305
 8304W        W17784   7.783   3.413   8.388  0.1520  0.0382  0.1583
 8305W        W17785  11.742   1.996   7.737 -0.0765  0.0682 -0.3176
 8306W        W17786   3.565  14.261   8.813  0.1776  0.0563 -0.1233
 8307W        W17787   3.009   5.264   8.678  0.4608 -0.1433 -0.1818
 8308W        W17788   9.940  13.631   2.032 -0.2578 -0.1853 -0.0924
 8309W        W17789   4.894   6.313   8.147  0.1167  0.1060 -0.0368
 8310W        W17790   8.315  11.232   1.649 -0.2524 -0.0857  0.0808
 8311W        W17791   1.322   7.048   9.020  0.0042  0.0056 -0.1096
 8312W        W17792   5.102   7.498   0.465  0.1441 -0.0121 -0.1239
 8313W        W17793   5.627   9.294   8.898 -0.1585 -0.0745 -0.3335
 8314W        W17794   6.681   1.485   8.023  0.2125  0.0013  0.2139
 8315W        W17795  15.075  11.938   0.655  0.1709 -0.1186 -0.3222
 8316W        W17796   9.472  12.311   0.927 -0.0906  0.1596 -0.0879
 8317W        W17797   6.301  11.820   8.081  0.1583 -0.0471  0.2569
 8318W        W17798   8.134   7.610   7.470  0.2750 -0.0174  0.1764
 8319W        W17799   8.232   3.087   6.482  0.1136  0.0906  0.1566
 8320W        W17800   7.177   6.727   2.293 -0.3193 -0.1605 -0.2559
 8321W        W17801   4.133   4.430   1.180 -0.2874  0.2154 -0.2970
 8322W        W17802   5.795   9.384   7.968 -0.1231 -0.0793  0.1935
 8323W        W17803  13.559   7.140   1.563 -0.0115 -0.3106 -0.1439
 8324W        W17804  10.168   5.896   8.475 -0.7149  0.4931  0.0254
 8325W        W17805  11.164   9.849   0.610 -0.2417 -0.0288  0.0033
 8326W        W17806   5.123  10.119   0.905 -0.1784 -0.1847 -0.0471
 8327W        W17807   2.811   7.988   0.519 -0.2638 -0.5439  0.0904
 8328W        W17808  12.368   1.071   2.246 -0.1550 -0.1471  0.3501
 8329W        W17809   9.190  10.555   1.209  0.1577  0.0478  0.0095
 8330W        W17810   8.237   5.915   0.171  0.1194 -0.0104 -0.1229
 8331W        W17811   8.289   9.604   1.227 -0.3419  0.0134 -0.2043
 8332W        W17812  11.234  12.995   8.448  0.0372 -0.1127 -0.0950
 8333W        W17813   8.840  11.170   1.484 -0.0068  0.1483  0.0677
 8334W        W17814   5.592  13.234   2.184  0.1085 -0.2121  0.0280
 8335W        W17815   6.331   8.139   0.517  0.0640 -0.0570 -0.0621
 8336W        W17816  10.692   7.473   8.134  0.1800 -0.0501 -0.4183
 8337W        W17817  12.255   8.264   1.793 -0.0339  0.1116  0.0212
 8338W        W17818   7.659  10.905   0.695 -0.2165 -0.0831 -0.0539
 8339W        W17819   0.332  10.923   0.078  0.0987  0.2897 -0.0961
 8340W        W17820   7.325  12.140   7.195  0.2044 -0.1315  0.0100
 8341W        W17821  15.014   8.382   6.841  0.1157 -0.2077 -0.0692
 8342W        W17822   0.654   9.375   2.375 -0.0509 -0.0751 -0.1011
 8343W        W17823  12.340  13.386   9.011  0.0750  0.4211 -0.1480
 8344W        W17824   4.509  12.737   1.713 -0.0688 -0.0331  0.2708
 8345W        W17825   0.611   8.438   6.905 -0.0719  0.4657  0.1517
 8346W        W17826   9.758   9.105   1.848 -0.1472 -0.1748 -0.1778
 8347W        W17827  12.524   9.434   8.764  0.2746 -0.1429 -0.4299
 8348W        W17828  12.188   7.266   2.792 -0.2115 -0.2236 -0.1416
 8349W        W17829   0.049   6.925   0.199 -0.2134 -0.3497  0.0647
 8350W        W17830  14.760   5.680   1.253 -0.1022 -0.0058  0.0108
 8351W        W17831  14.208   7.133   1.699 -0.2425 -0.1683  0.0629
 8352W        W17832  15.069   1.178   9.036  0.1315 -0.0530 -0.1365
 8353W        W17833  11.018   8.949   8.032  0.1027 -0.0387 -0.1679
 8354W        W17834   7.830  11.281   8.984 -0.1418 -0.2002 -0.0133
 8355W        W17835  10.646  11.001   0.133  0.1751 -0.1056 -0.1040
 8356W        W17836  11.810   6.848   8.532  0.1875 -0.0960 -0.0666
 8357W        W17837  11.480   9.487   2.663  0.3290 -0.0125 -0.0061
 8358W        W17838   4.954  12.449   8.510 -0.0149 -0.1297  0.0059
 8359W        W17839  11.763  13.287   2.020  0.0853  0.1746  0.1462
 8360W        W17840  13.232   3.591   8.924  0.0739  0.2230  0.4084
 8361W        W17841  11.681   8.242   8.314  0.0796  0.1086 -0.2461
 8362W        W17842  13.281   7.372   7.837  0.3113  0.1202  0.1786
 8363W        W17843   9.601   3.811   1.519  0.0132  0.1077  0.2511
 8364W        W17844   9.682   9.974   1.678 -0.1045  0.2197 -0.0675
 8365W        W17845  10.828  11.830   2.152  0.2731  0.1126  0.0668
 8366W        W17846  14.460   1.774   8.983 -0.0251 -0.0735  0.1461
 8367W        W17847   9.873   6.727   0.747  0.0724 -0.2400  0.1891
 8368W        W17848   8.605   7.183   0.863  0.0200  0.2945 -0.0886
 8369W        W17849   9.258   4.788   7.397 -0.0228 -0.1718  0.1462
 8370W        W17850   7.702   7.377   0.850  0.0077 -0.0107  0.2505
 8371W        W17851   8.467  14.076   6.562 -0.2466  0.1631  0.1350
 8372W        W17852  13.419   8.406   7.901  0.0106 -0.2024  0.1565
 8373W        W17853  10.564  12.022   1.332 -0.2712  0.1759  0.0422
 8374W        W17854   9.960   9.400   0.575 -0.0382 -0.3919  0.1142
 8375W        W17855  11.365  10.431   0.453 -0.2126  0.0441 -0.2866
 8376W        W17856  11.842  10.494   0.501 -0.2210 -0.1913  0.0155
 8377W        W17857   9.512   8.715   8.004 -0.1974 -0.2016 -0.2430
 8378W        W17858  11.419  11.860   2.218  0.1689  0.1222  0.2856
 8379W        W17859   8.115  15.409   8.421 -0.0295  0.4169  0.2130
 8380W        W17860   8.498  10.788   1.598  0.1771  0.0064 -0.3376
 8381W        W17861   6.239  12.679   8.543  0.0614 -0.2810 -0.2563
 8382W        W17862   9.640   6.203   7.712  0.1568 -0.0913 -0.4708
 8383W        W17863   0.140   3.562   8.744 -0.1121  0.0559 -0.2049
 8384W        W17864  10.897  13.190   0.818  0.0170 -0.2261 -0.0749
 8385W        W17865  13.556   6.673   0.331 -0.1826  0.1112  0.1263
 8386W        W17866   8.690   5.980   1.835 -0.0345 -0.0587  0.0098
 8387W        W17867  13.613  14.089   7.514 -0.3626  0.0955 -0.3725
 8388W        W17868   7.761  12.081   0.334 -0.1553 -0.0117  0.0981
 8389W        W17869  14.146   5.339   7.782 -0.1176 -0.0691  0.0821
 8390W        W17870   8.384  13.565   0.095  0.0521 -0.4421  0.0893
 8391W        W17871  11.846   8.837   8.345  0.0335 -0.1177 -0.1203
 8392W        W17872  13.529   8.797   8.233 -0.4280 -0.2452 -0.0622
 8393W        W17873   9.120   4.760   1.704  0.2271 -0.0206 -0.1644
 8394W        W17874  10.857  10.266   0.601 -0.1039  0.1174 -0.0263
 8395W        W17875   0.465  10.331   0.600 -0.1078 -0.0004 -0.1123
 8396W        W17876  12.168  10.008   2.004 -0.0304 -0.1732  0.0747
 8397W        W17877  12.903   8.190   8.287 -0.2351  0.1980 -0.0696
 8398W        W17878   1.009   9.729   8.658 -0.1495  0.1213  0.0965
 8399W        W17879  11.704   8.258   0.575  0.0550  0.1419  0.2536
 8400W        W17880  10.777   7.114   8.521 -0.2357 -0.2358  0.1638
 8401W        W17881  12.359   8.754   1.357  0.0397 -0.3419 -0.5555
 8402W        W17882  15.389   5.899   7.454 -0.0995 -0.0796  0.0690
 8403W        W17883   5.661   8.338   9.100  0.3290 -0.3265  0.2085
 8404W        W17884  10.931   9.040   7.421  0.2114 -0.0537 -0.0484
 8405W        W17885  13.210   2.653   8.529  0.2979  0.2048  0.0604
 8406W        W17886  13.608   9.615   1.769  0.0081  0.0968 -0.3737
 8407W        W17887   8.366   9.901   8.960 -0.0789 -0.3361  0.0494
 8408W        W17888   2.721   6.039   7.036 -0.1619 -0.3127  0.4106
 8409W        W17889  11.845   7.463   1.950  0.3184  0.3461  0.2196
 8410W        W17890   9.743   8.169   2.108 -0.3287  0.2914  0.2088
 8411W        W17891  12.170  10.985   7.882 -0.1609 -0.1399  0.4325
 8412W        W17892  12.268   5.213   7.051  0.1851 -0.1004 -0.0159
 8413W        W17893  15.140   7.974   0.126 -0.2909 -0.0601  0.2125
 8414W        W17894  14.627   8.878   8.974  0.1365 -0.0307 -0.3240
 8415W        W17895  11.294   7.517   2.647 -0.1396  0.0068  0.0660
 8416W        W17896   6.141   7.307   8.769 -0.1412  0.2668 -0.0389
 8417W        W17897  10.313   4.054   7.661 -0.2864  0.0993 -0.1011
 8418W        W17898   9.099   3.954   8.370 -0.0208 -0.0090  0.2026
 8419W        W17899  14.528   2.658   0.129 -0.0362  0.4586  0.1331
 8420W        W17900   9.333   4.368   1.476  0.0581  0.0656 -0.0615
 8421W        W17901   4.988  13.713   0.555 -0.0770  0.0041  0.2378
 8422W        W17902   8.396   5.216   9.022 -0.3148 -0.2243  0.0959
 8423W        W17903   7.361   8.222   7.890  0.1646 -0.0208 -0.0938
 8424W        W17904  10.246  12.125   7.290  0.0353  0.1892 -0.1726
 8425W        W17905   7.271  12.992   9.086 -0.1065  0.0438  0.1090
 8426W        W17906   9.819  10.462   6.395  0.1153 -0.1910 -0.1459
 8427W        W17907   6.475   8.569   1.234  0.1004 -0.0721  0.0013
 8428W        W17908  12.972  11.502   8.289  0.0329 -0.0117  0.0773
 8429W        W17909   1.744   8.561   7.476  0.2768 -0.1860  0.2392
 8430W        W17910  14.005   8.632   8.137 -0.6323  0.0295 -0.2647
 8431W        W17911   8.442   7.417   7.873 -0.3067  0.0713 -0.2869
 8432W        W17912  14.426   9.849   8.267  0.0412 -0.0976  0.1622
 8433W        W17913   7.407  13.297   8.708  0.1909 -0.0537  0.0998
 8434W        W17914  10.317   8.838   0.896 -0.4226 -0.0804  0.3303
 8435W        W17915  11.282   9.091   0.606  0.0126  0.1072  0.0426
 8436W        W17916   9.143  11.005   1.009  0.1709 -0.1863  0.0259
 8437W        W17917   9.353   5.206   1.778 -0.0306  0.0542 -0.2381
 8438W        W17918   0.381   5.310   1.309 -0.3777 -0.1184  0.1436
 8439W        W17919   1.060   4.921   6.856  0.0636  0.0244  0.0540
 8440W        W17920   9.020  10.036   1.161  0.2563  0.1931  0.2988
 8441W        W17921  12.541  10.069   7.755  0.1949  0.2028 -0.3431
 8442W        W17922   0.631   7.681   8.538  0.1706 -0.0046 -0.1383
 8443W        W17923  12.137  14.712   7.592 -0.0658 -0.2319 -0.2700
 8444W        W17924  15.434  10.430   0.514 -0.0508 -0.0624  0.1742
 8445W        W17925   0.050   6.984   6.598 -0.3927 -0.1026  0.2231
 8446W        W17926  14.493  11.530   2.132  0.0594 -0.3227 -0.3293
 8447W        W17927   7.594   7.168   9.076  0.0418  0.1052 -0.1681
 8448W        W17928   9.926   3.316   0.738  0.1296  0.0053 -0.1567
 8449W        W17929   1.977  10.049   0.742 -0.1679 -0.0542  0.1803
 8450W        W17930   6.047   8.530   1.431  0.1478  0.2124 -0.0282
 8451W        W17931   5.397  11.960   1.632  0.0194  0.0719 -0.5312
 8452W        W17932  10.168  11.592   1.468 -0.0066  0.0299 -0.0063
 8453W        W17933  11.213  11.625   0.333 -0.0689 -0.4101  0.1522
 8454W        W17934   0.428   4.414   0.669 -0.0624  0.1101  0.3554
 8455W        W17935  12.072   3.161   9.073  0.3476  0.1936  0.2097
 8456W        W17936  10.297   9.809   7.663  0.1300 -0.0171  0.0354
 8457W        W17937   9.065  12.906   1.780 -0.0218 -0.2514  0.1047
 8458W        W17938   8.051   4.342   7.941 -0.2229 -0.0621  0.1898
 8459W        W17939  14.750  10.893   7.806 -0.3105 -0.3490  0.1570
 8460W        W17940   7.036   6.285   0.737  0.1759  0.0342 -0.3182
 8461W        W17941   7.953   6.186   7.643 -0.1015  0.2721 -0.0720
 8462W        W17942   8.248   8.160   0.510  0.1151 -0.0037 -0.0516
 8463W        W17943  15.314  10.252   2.283 -0.0579 -0.1842 -0.1258
 8464W        W17944   0.156   7.825   8.374  0.1173  0.3956  0.3097
 8465W        W17945  14.258  11.954   0.444  0.3653 -0.3298 -0.2336
 8466W        W17946   1.216   5.358   8.843  0.2865  0.0011 -0.0975
 8467W        W17947  12.598  10.726   0.006 -0.1229 -0.2145 -0.0484
 8468W        W17948  14.945  10.912   8.248 -0.0066 -0.1071  0.4520
 8469W        W17949   9.754   8.951   0.830  0.0523  0.0878  0.2965
 8470W        W17950   8.412  12.653   2.378  0.2080  0.0923  0.0229
 8471W        W17951  11.098   6.221   2.168  0.1740  0.0713 -0.4540
 8472W        W17952  10.131   5.037   2.610 -0.1418 -0.2860 -0.0846
 8473W        W17953   6.159   9.490   1.725  0.0111  0.2790 -0.3073
 8474W        W17954   4.290   4.906   0.171  0.1175  0.0200  0.0122
 8475W        W17955   6.617   8.780   8.356  0.2482  0.3153  0.1992
 8476W        W17956  11.776   5.890   7.322  0.0300  0.0293  0.0025
 8477W        W17957   9.455  14.125   0.917  0.3187  0.2557 -0.1202
 8478W        W17958  11.393  10.231   1.035  0.0078  0.0627 -0.1331
 8479W        W17959  12.274   7.536   1.089  0.0412  0.1174 -0.1854
 8480W        W17960   0.252   8.836   7.489  0.0197  0.0062 -0.3380
 8481W        W17961   9.043   7.427   7.765 -0.1500 -0.3383  0.0422
 8482W        W17962  15.285   7.684   1.423 -0.1412  0.0053  0.0383
 8483W        W17963   8.859   9.810   8.110  0.0307  0.1715 -0.1980
 8484W        W17964   8.703   7.938   1.625 -0.0784 -0.0139 -0.1364
 8485W        W17965  13.760  10.304   0.859 -0.3854 -0.0669  0.1974
 8486W        W17966   9.238  12.850   1.309  0.0802 -0.0381 -0.0206
 8487W        W17967   5.979  12.345   2.577 -0.0567  0.3273  0.3708
 8488W        W17968  12.652   2.346   7.479  0.1134  0.1593 -0.1582
 8489W        W17969  10.288   5.726   0.261  0.1496  0.1311 -0.1409
 8490W        W17970  14.820   6.196   8.199 -0.3017 -0.1094  0.0198
 8491W        W17971   0.393   7.442   8.150 -0.1365 -0.0335 -0.0349
 8492W        W17972  13.696   3.224   8.975  0.2361  0.1774 -0.0560
 8493W        W17973   9.598   5.109   6.357 -0.0492 -0.1206  0.1263
 8494W        W17974   8.863   7.967   1.187 -0.0132  0.3929  0.0286
 8495W        W17975   1.584   9.572   7.345 -0.0899 -0.0626  0.1222
 8496W        W17976  12.499   4.610   0.239 -0.1015  0.2241  0.0752
 8497W        W17977  11.881  12.077   1.897 -0.0515  0.0074 -0.0435
 8498W        W17978  14.148  11.355   0.585  0.0595  0.0385  0.2811
 8499W        W17979  10.481   8.244   9.057 -0.0333 -0.1893 -0.1263
 8500W        W17980   9.087  13.920   2.218  0.2628  0.3574 -0.1458
 8501W        W17981  10.712   6.725   7.622  0.3702  0.0148  0.0632
 8502W        W17982   8.713   4.670   0.331  0.0302  0.1293  0.3568
 8503W        W17983  12.882  11.387   0.574  0.0589  0.3622  0.1523
 8504W        W17984  10.814   6.843   1.747  0.2614  0.4849  0.1790
 8505W        W17985   2.189   6.817   0.216  0.0585  0.1694 -0.0341
 8506W        W17986  15.177   6.427   0.858  0.2844  0.0062 -0.2400
 8507W        W17987  12.515   1.246   1.776 -0.0423 -0.3373  0.2674
 8508W        W17988  12.155   7.366   8.452  0.0346 -0.3876 -0.3385
 8509W        W17989   3.588   8.861   8.044  0.3301 -0.1170 -0.1915
 8510W        W17990  12.232  12.889   8.993  0.1423  0.0835 -0.1331
 8511W        W17991   0.789   0.063   8.468  0.2021 -0.0597  0.2028
 8512W        W17992  13.010  11.593   1.592  0.0610  0.1093 -0.0345
 8513W        W17993   8.258   2.169   2.747  0.1144 -0.4205 -0.0051
 8514W        W17994  15.366   8.579   7.786  0.0545 -0.4844 -0.2784
 8515W        W17995  12.436   7.093   1.439 -0.2852 -0.3258  0.0594
 8516W        W17996  10.340   7.227   0.834 -0.2481  0.0711  0.4426
 8517W        W17997   4.717   4.896   8.522  0.1176  0.2180  0.1577
 8518W        W17998   4.954  10.248   7.688  0.2756  0.1263 -0.0928
 8519W        W17999  10.272   6.277   1.273  0.1161  0.3399  0.1143
 8520W        W18000  12.422   8.352   7.110 -0.3615 -0.0225 -0.0386
 8521W        W18001   7.565  11.001   1.216  0.1699  0.1174  0.1395
 8522W        W18002   9.212  10.008   0.571 -0.1699 -0.0374 -0.3314
 8523W        W18003  10.231  11.529   0.973 -0.1583  0.2267  0.0389
 8524W        W18004   1.076   8.670   6.758 -0.0952  0.2427 -0.0604
 8525W        W18005  14.241   8.436   1.311  0.3692 -0.1806 -0.0893
 8526W        W18006  15.371   7.338   8.709 -0.3427  0.0882  0.0672
 8527W        W18007   9.389   0.004   6.336  0.0797  0.0537  0.0422
 8528W        W18008  15.229   9.757   2.581  0.2484 -0.1928 -0.1669
 8529W        W18009  11.158   7.839   0.980 -0.2288 -0.0705 -0.0266
 8530W        W18010  11.874   7.219   7.611  0.0437 -0.2134  0.1209
 8531W        W18011  13.280   8.964   1.294 -0.0650  0.0373 -0.2068
 8532W        W18012   5.547   7.124   7.550  0.1297 -0.1401  0.2279
 8533W        W18013  10.107   2.885   1.689  0.1050  0.1394  0.0174
 8534W        W18014  11.027  11.419   7.621 -0.0999  0.1547  0.1089
 8535W        W18015   9.097   7.947   0.672 -0.1342  0.3093 -0.0088
 8536W        W18016   8.234   5.491   8.135 -0.0624  0.2926 -0.0162
 8537W        W18017  13.408  12.294   8.620  0.2231  0.1078 -0.0403
 8538W        W18018  13.032   7.422   8.664  0.1504 -0.2788 -0.0919
 8539W        W18019  10.843  13.278   2.162 -0.2498 -0.3477  0.0270
 8540W        W18020  13.937   6.564   0.904 -0.0471  0.0947 -0.1135
 8541W        W18021  11.707  12.067   1.355  0.0068 -0.3677  0.1361
 8542W        W18022  10.351  11.750   2.276  0.2197  0.1390  0.2904
 8543W        W18023   0.016   7.587   2.414  0.0615  0.0042  0.2033
 8544W        W18024   7.932   4.446   9.092  0.2750 -0.2036 -0.0818
 8545W        W18025   0.586  10.241   7.939  0.0506  0.3257  0.1565
 8546W        W18026  11.129   3.380   7.043  0.0815  0.5033 -0.1646
 8547W        W18027   9.679  10.671   7.681  0.2560  0.2118  0.1020
 8548W        W18028   9.540   9.623   0.418  0.1995 -0.0755 -0.0304
 8549W        W18029   2.050   9.633   7.213 -0.0807 -0.1539  0.0018
 8550W        W18030   9.683   7.877   0.040 -0.3441 -0.3167 -0.0684
 8551W        W18031  12.075   7.859   0.174  0.2513  0.0397 -0.0023
 8552W        W18032  14.254   6.963   0.717 -0.2504 -0.1775 -0.0785
 8553W        W18033   6.714  11.499   7.495 -0.1487 -0.1927 -0.0307
 8554W        W18034  13.792  10.110   6.512 -0.2457 -0.3872  0.2506
 8555W        W18035   9.577  10.446   1.507  0.2374 -0.3384 -0.0959
 8556W        W18036  14.604   9.705   7.374 -0.2570  0.1136 -0.2204
 8557W        W18037   1.617   7.324   7.753  0.1470  0.0045  0.0541
 8558W        W18038  11.992   5.026   8.531  0.1670  0.0742  0.1521
 8559W        W18039   9.977   3.943   7.095  0.3062  0.0509 -0.1959
 8560W        W18040  14.731  11.129   2.374  0.1058  0.0431 -0.0034
 8561W        W18041  10.124   9.307   7.704  0.1718  0.1278  0.0271
 8562W        W18042  10.645   5.689   8.499 -0.0472  0.0725  0.0984
 8563W        W18043  15.256  13.821   8.773  0.2185  0.3618 -0.0247
 8564W        W18044   1.600  12.297   8.774 -0.0167  0.1493 -0.1042
 8565W        W18045   1.469   7.211   7.269  0.0413  0.0406 -0.0425
 8566W        W18046   8.807   2.835   2.107  0.2965 -0.1271 -0.0666
 8567W        W18047  12.674  10.283   8.912  0.0970 -0.0112 -0.3782
 8568W        W18048   2.872  13.689   6.902 -0.2891  0.0560  0.0164
 8569W        W18049   3.694   2.915   2.133 -0.0154  0.0783 -0.1065
 8570W        W18050   9.745  11.694   0.978  0.1863  0.1610  0.0371
 8571W        W18051   9.803   8.047   1.641 -0.2676  0.0650 -0.1980
 8572W        W18052  13.120   5.439   1.940 -0.4135  0.0439 -0.0347
 8573W        W18053  14.645   8.995   0.796 -0.1748 -0.1683  0.3164
 8574W        W18054  11.643  10.341   8.232 -0.0517  0.1768  0.2533
 8575W        W18055   3.258   6.478   1.739 -0.0673 -0.1792  0.1112
 8576W        W18056   0.943   8.751   1.455 -0.2391 -0.0682 -0.4441
 8577W        W18057   2.180   4.477   8.898  0.0891 -0.1935  0.0305
 8578W        W18058  13.368  10.255   1.607 -0.0318 -0.2787  0.1211
 8579W        W18059   1.411   9.200   1.761  0.1203  0.1058  0.2212
 8580W        W18060   0.190   1.666   1.302  0.0398  0.0399 -0.2612
 8581W        W18061  15.020  13.568   6.513  0.4106  0.3125 -0.0025
 8582W        W18062  14.710   9.735   0.011  0.1277  0.0556 -0.0187
 8583W        W18063   5.692   7.777   8.199 -0.0404 -0.0016 -0.2582
 8584W        W18064   0.093   6.000   1.389 -0.0228  0.2663  0.5406
 8585W        W18065   1.984  10.739   6.260  0.0773 -0.2462  0.2252
 8586W        W18066   0.992  10.213   1.420 -0.0068 -0.1268 -0.2569
 8587W        W18067   7.605   0.093   2.150  0.1718 -0.0497  0.5409
 8588W        W18068  13.462   9.510   8.119  0.4303 -0.0294  0.0293
 8589W        W18069  13.595   9.138   3.050 -0.2321  0.1475 -0.1355
 8590W        W18070   0.370   8.932   2.469  0.1684 -0.1047  0.0239
 8591W        W18071   0.275   6.594   8.043 -0.2532 -0.0567 -0.1643
 8592W        W18072  13.496   6.803   6.327  0.0561 -0.2386 -0.3365
 8593W        W18073  10.895   5.671   0.682  0.2653 -0.0017 -0.0621
 8594W        W18074   0.693  11.996   0.051  0.1433 -0.0481 -0.1147
 8595W        W18075  13.979   8.005   1.582 -0.1610  0.0812 -0.1616
 8596W        W18076   8.202   8.623   8.257  0.3867 -0.1429 -0.0752
 8597W        W18077   3.721   9.830   0.687  0.0123  0.1717 -0.1706
 8598W        W18078  11.639   6.308   7.552  0.0760  0.1795 -0.0318
 8599W        W18079  13.122   9.835   1.621 -0.1686 -0.3301  0.1490
 8600W        W18080   2.027   8.520   0.288 -0.1891 -0.0553 -0.4782
 8601W        W18081  14.527  11.624   1.637  0.1969  0.1855  0.1781
 8602W        W18082   2.264   6.837   1.046  0.2343 -0.0405 -0.0955
 8603W        W18083  12.526   6.232   0.892  0.0150 -0.2101  0.1907
 8604W        W18084  12.115  11.905   7.728  0.2942 -0.2757  0.2655
 8605W        W18085  15.293   8.877   8.355  0.2167  0.0713  0.0059
 8606W        W18086   1.834  10.442   1.028 -0.2566  0.3040 -0.2304
 8607W        W18087   7.062   6.577   7.209  0.1169 -0.0580  0.1707
 8608W        W18088  13.285   8.784   0.408 -0.3022  0.3971 -0.3935
 8609W        W18089  14.952   8.624   8.111 -0.4023  0.3371  0.1539
 8610W        W18090   7.611  10.445   8.453 -0.1077  0.4071 -0.1375
 8611W        W18091  12.568   6.533   1.603 -0.4656 -0.0257 -0.0839
 8612W        W18092   0.181   8.151   0.160 -0.0768  0.0803  0.0648
 8613W        W18093   2.601   8.959   1.595  0.0889  0.0066  0.0591
 8614W        W18094   3.495  10.282   0.205 -0.2738 -0.2216 -0.2400
 8615W        W18095  15.041   9.999   7.514 -0.1569 -0.0551 -0.0482
 8616W        W18096  13.341  11.503   0.549  0.0860 -0.0257 -0.2600
 8617W        W18097   0.582  14.128   2.073  0.0494 -0.3205 -0.1206
 8618W        W18098   5.841   6.318   0.275 -0.2432  0.3017  0.1084
 8619W        W18099   2.256   3.748   7.334  0.3460  0.0160 -0.0923
 8620W        W18100   0.224  13.283   1.696  0.1968  0.1487 -0.0508
 8621W        W18101   1.947  13.131   0.825 -0.0034  0.3042 -0.2797
 8622W        W18102   9.976   3.618   9.081  0.3949 -0.0586 -0.3394
 8623W        W18103  14.693  10.408   1.199 -0.0673 -0.2028 -0.3355
 8624W        W18104  13.237  13.686   1.038 -0.0281 -0.1470  0.0548
 8625W        W18105   0.482   6.053   2.085 -0.2279 -0.0587 -0.0573
 8626W        W18106   1.915   4.583   7.917  0.2029  0.1607 -0.3259
 8627W        W18107  12.501   9.432   1.086  0.2571  0.1488  0.3244
 8628W        W18108   2.618   6.032   7.529  0.2549  0.1000 -0.0168
 8629W        W18109   0.469   9.845   8.186 -0.1065  0.2633 -0.2462
 8630W        W18110   4.766   6.100   7.064 -0.1852  0.1849  0.1228
 8631W        W18111   9.543   6.626   2.886  0.2191  0.0767  0.1918
 8632W        W18112   1.873   8.473   6.517  0.3916 -0.1036  0.2375
 8633W        W18113  12.444   7.833   7.091 -0.1942  0.2545 -0.1198
 8634W        W18114  14.131   4.634   7.898  0.1672 -0.0392 -0.2275
 8635W        W18115   9.147   1.065   7.039 -0.1217 -0.2673 -0.1704
 8636W        W18116  10.127   7.180   0.250 -0.2300  0.2700  0.1505
 8637W        W18117   3.002  11.136   6.797 -0.1314 -0.1792 -0.0072
 8638W        W18118   1.796   8.840   0.003  0.2171  0.0543  0.1932
 8639W        W18119   2.069   2.721   8.534 -0.3613  0.0088  0.2039
 8640W        W18120   0.214   8.638   1.460  0.3584  0.1765 -0.0510
 8641W        W18121  15.323   8.966   8.899 -0.0804 -0.0643  0.3582
 8642W        W18122   3.023   4.233   6.689  0.0457 -0.1146 -0.3091
 8643W        W18123  13.770   4.131   7.715 -0.3710  0.0341 -0.1355
 8644W        W18124  13.294   3.247   8.487 -0.1481 -0.1722  0.2978
 8645W        W18125  13.769   8.752   1.217  0.2708  0.2050  0.2346
 8646W        W18126  11.811   1.361   0.035  0.0425  0.0274 -0.2411
 8647W        W18127  10.256  14.299   1.188 -0.0874 -0.0521  0.0848
 8648W        W18128  13.637   7.771   0.266  0.0318  0.1161 -0.3229
 8649W        W18129  10.546  10.198   1.378 -0.4112  0.4519  0.1757
 8650W        W18130   7.476  12.770   2.292  0.0876 -0.1905  0.0557
 8651W        W18131   9.097   0.881   8.594 -0.0654  0.1609  0.3354
 8652W        W18132   2.157  10.513   8.409  0.0341 -0.1166 -0.0065
 8653W        W18133  12.579   2.950   1.247 -0.1758  0.3478 -0.1401
 8654W        W18134  14.878  15.110   7.227 -0.2721 -0.1828 -0.1645
 8655W        W18135   4.872   7.210   8.160  0.1885  0.0248  0.1237
 8656W        W18136  14.402  14.438   1.053  0.0422 -0.0461 -0.0583
 8657W        W18137  13.665  13.837   1.128 -0.0373  0.2329  0.2333
 8658W        W18138   1.848  14.837   2.564 -0.5212 -0.0033  0.0794
 8659W        W18139   0.206  10.063   6.868  0.0788  0.2819  0.1624
 8660W        W18140   9.352   9.869   8.045  0.1417 -0.0128 -0.1588
 8661W        W18141  12.015  13.975   0.562  0.1138 -0.1862 -0.0643
 8662W        W18142  14.030  13.988   8.700 -0.3123  0.0141  0.0678
 8663W        W18143  14.727  13.067   7.761 -0.1393  0.2759 -0.1133
 8664W        W18144   3.427   8.254   8.199 -0.1802  0.2190  0.1784
 8665W        W18145   3.890   0.601   8.542  0.1424 -0.2976 -0.0407
 8666W        W18146  11.885  14.083   1.701  0.1159  0.3267 -0.1859
 8667W        W18147   5.437  15.387   7.160 -0.2984 -0.1497  0.0325
 8668W        W18148   3.892  12.023   0.091  0.2356  0.3535  0.0645
 8669W        W18149  10.883  10.867   7.636 -0.2346 -0.0473  0.2926
 8670W        W18150   5.247   3.184   8.558 -0.1039  0.0672 -0.0585
 8671W        W18151  13.472   3.171   1.233  0.1195 -0.2201 -0.2039
 8672W        W18152  14.561  12.639   8.136 -0.2001 -0.0334  0.4288
 8673W        W18153   6.598  10.357   8.109  0.4969 -0.2185  0.2946
 8674W        W18154   6.837  11.283   0.680  0.2995  0.1131 -0.2867
 8675W        W18155  14.869  12.611   2.037 -0.1787 -0.0591 -0.0586
 8676W        W18156   9.268   1.694   7.450  0.0147 -0.0370  0.2129
 8677W        W18157   2.272  10.636   7.276  0.0427 -0.1730 -0.2359
 8678W        W18158   3.615  15.301   1.164  0.3859 -0.1111  0.0341
 8679W        W18159   5.692  13.667   1.859 -0.1571 -0.1222  0.1626
 8680W        W18160   6.370   9.941   8.459  0.1608  0.0469 -0.0122
 8681W        W18161   3.429   3.091   1.754 -0.1071  0.0557 -0.2163
 8682W        W18162  10.641  14.955   6.812 -0.3820 -0.1668  0.3068
 8683W        W18163   5.802   9.176   0.706  0.1706 -0.1708  0.0882
 8684W        W18164  10.401  13.025   1.983 -0.1041 -0.0434  0.0922
 8685W        W18165  12.886   7.516   2.223 -0.0129  0.2460 -0.2850
 8686W        W18166   1.297  10.356   2.322  0.1736 -0.0319  0.0230
 8687W        W18167   3.595  11.217   8.631 -0.3371 -0.3166  0.0505
 8688W        W18168   4.554  10.305   1.525 -0.0291  0.1945 -0.1131
 8689W        W18169  11.912   0.497   7.720 -0.1086  0.0935  0.2441
 8690W        W18170  12.463  11.692   8.492  0.0106 -0.0885  0.1571
 8691W        W18171   4.086  12.469   8.880 -0.2221  0.1304  0.2360
 8692W        W18172   6.586  12.221   1.811 -0.2235 -0.1502 -0.1865
 8693W        W18173  14.493  12.150   6.723 -0.0208  0.0166 -0.4462
 8694W        W18174   1.778  13.283   1.530 -0.0155 -0.2262 -0.0237
 8695W        W18175   3.936   8.645   7.230  0.0740 -0.2917 -0.1488
 8696W        W18176   3.177   8.238   8.806  0.0923 -0.1538  0.3157
 8697W        W18177   3.306  13.905   1.004 -0.1390  0.3817 -0.2658
 8698W        W18178  15.231   5.237   8.418 -0.1486 -0.1894  0.1583
 8699W        W18179   6.795  11.573   1.133 -0.2828 -0.2894 -0.1081
 8700W        W18180  14.878   6.534   2.000 -0.0946  0.2050 -0.1113
 8701W        W18181   7.247  12.523   0.792  0.1229  0.0606 -0.1194
 8702W        W18182   3.898   1.733   6.609 -0.0473  0.1052  0.1760
 8703W        W18183  13.577   9.554   2.248  0.2286  0.0440  0.1357
 8704W        W18184   2.847  12.111   2.785 -0.1840 -0.0204  0.2879
 8705W        W18185   0.969   1.338   7.106  0.0966 -0.2303  0.1622
 8706W        W18186   5.081   9.859   8.551 -0.1222 -0.1619  0.0130
 8707W        W18187   1.264  13.205   6.939  0.1123 -0.3158 -0.2741
 8708W        W18188  13.917  13.478   8.553  0.0799  0.0515 -0.4266
 8709W        W18189   0.075   5.091   8.017  0.0558 -0.0787  0.0991
 8710W        W18190   0.479  10.073   1.734  0.0181  0.1124  0.0308
 8711W        W18191   7.025  11.620   0.272  0.1681  0.1079 -0.2470
 8712W        W18192   3.169  11.416   7.175 -0.2390  0.0195 -0.0334
 8713W        W18193   6.222   9.093   8.085  0.0708  0.1884 -0.0617
 8714W        W18194   3.667   0.685   6.732 -0.1192  0.0176  0.0389
 8715W        W18195  12.945  13.023   7.549 -0.2270 -0.1332 -0.2682
 8716W        W18196   0.085  13.702   7.804 -0.1532  0.0860 -0.0783
 8717W        W18197  13.443  10.507   2.225  0.0518  0.0154  0.2209
 8718W        W18198  13.650  13.478   0.691  0.3955  0.1061  0.3822
 8719W        W18199   3.915  13.544   0.451  0.0307  0.1096 -0.0277
 8720W        W18200  15.146  10.348   1.431 -0.1151  0.1418  0.0393
 8721W        W18201   8.922  14.850   8.611 -0.2177  0.0749  0.0722
 8722W        W18202   1.714   8.506   6.998  0.2188  0.1351  0.1458
 8723W        W18203   0.068   1.290   7.571  0.0799  0.0690  0.0173
 8724W        W18204  12.982  12.033   7.726 -0.0682 -0.0647  0.1395
 8725W        W18205  14.815  13.037   1.435 -0.1404  0.0415 -0.3750
 8726W        W18206  10.481  11.712   8.367  0.0766 -0.0178  0.1393
 8727W        W18207  14.908   0.705   0.293 -0.0281 -0.6600  0.2360
 8728W        W18208   2.504   1.203   8.231 -0.0429  0.1816 -0.1356
 8729W        W18209  14.305   8.853   8.585 -0.1108 -0.4596 -0.1420
 8730W        W18210   4.298  10.474   1.941  0.6672 -0.0180 -0.0349
 8731W        W18211   2.155   3.261   7.343  0.2746 -0.2365  0.1299
 8732W        W18212  14.800  12.489   1.079 -0.0177  0.1866  0.0444
 8733W        W18213   0.163  14.929   1.955 -0.0171 -0.1020  0.2999
 8734W        W18214   1.559   6.612   2.118 -0.0997 -0.0182  0.0218
 8735W        W18215   1.662  14.197   6.808 -0.1406 -0.0981  0.0161
 8736W        W18216  13.249   9.159   0.053  0.0177 -0.2793  0.1556
 8737W        W18217   2.239  13.845   9.051 -0.1923  0.0814 -0.0590
 8738W        W18218  13.606   9.607   9.000  0.1538 -0.3636 -0.3426
 8739W        W18219  12.328  13.238   2.070 -0.6350 -0.0907 -0.3622
 8740W        W18220  15.075   8.526   8.584  0.4035 -0.1009 -0.2073
 8741W        W18221  11.286  11.647   6.827  0.2903 -0.1508  0.1534
 8742W        W18222   0.344   9.384   8.309 -0.2425  0.0752 -0.1451
 8743W        W18223   5.220   8.057   2.778 -0.0702 -0.1565 -0.2750
 8744W        W18224   6.987   0.744   0.383  0.1624 -0.0252  0.0976
 8745W        W18225   9.110  10.090   8.447 -0.0208  0.0341  0.0660
 8746W        W18226   9.449  13.628   0.756  0.0470 -0.1884 -0.2343
 8747W        W18227  14.723  10.830   8.970  0.0064 -0.1756 -0.1086
 8748W        W18228   0.642   0.836   2.648  0.2249  0.3634 -0.2949
 8749W        W18229   1.000  11.922   0.462 -0.3336  0.0617  0.0085
 8750W        W18230   3.011   9.801   2.156 -0.0573  0.0881  0.2786
 8751W        W18231   1.160  10.520   6.539  0.1688  0.1216  0.4043
 8752W        W18232   1.577   5.120   7.079  0.0807 -0.1167 -0.2966
 8753W        W18233   0.531  11.928   7.160 -0.1006 -0.2800  0.1345
 8754W        W18234   2.302   2.806   7.051  0.4687  0.0208 -0.0505
 8755W        W18235   5.728   7.925   0.762  0.1479 -0.0430 -0.2266
 8756W        W18236   7.037  14.174   8.510 -0.2125 -0.3163  0.1896
 8757W        W18237   1.014  12.263   7.141 -0.1614 -0.1702  0.0950
 8758W        W18238   9.320  13.279   7.764 -0.0426  0.2488 -0.2649
 8759W        W18239   3.960  10.287   1.504  0.1845  0.0691 -0.0774
 8760W        W18240  15.405   5.581   7.927  0.1492 -0.0023 -0.3506
 8761W        W18241  11.658   8.789   0.404 -0.1573  0.1468 -0.0588
 8762W        W18242  14.836   9.903   2.285  0.0600  0.1876 -0.0125
 8763W        W18243   4.521  10.569   7.826 -0.0492 -0.1669 -0.1777
 8764W        W18244  15.400  14.371   1.077 -0.2360 -0.0429 -0.0850
 8765W        W18245   4.247   0.280   8.053 -0.1676 -0.2232  0.1113
 8766W        W18246   1.549   6.795   7.956  0.0543 -0.1519  0.1954
 8767W        W18247   8.299   2.251   1.653 -0.1591 -0.1540 -0.1004
 8768W        W18248  11.486   7.858   8.954  0.0437 -0.0453 -0.0762
 8769W        W18249  11.236   9.182   1.914 -0.1014  0.2332 -0.1780
 8770W        W18250   4.470   0.014   7.229 -0.1031  0.0254 -0.1088
 8771W        W18251  13.672   2.647   0.639  0.0734  0.1955 -0.2389
 8772W        W18252   3.330   9.487   7.367 -0.1732  0.0177 -0.0402
 8773W        W18253   1.605  15.367   1.700 -0.0923 -0.2670  0.2307
 8774W        W18254  15.342  10.591   8.238 -0.0914 -0.1140 -0.0967
 8775W        W18255   0.549  10.707   8.326 -0.1371 -0.1328  0.0203
 8776W        W18256   4.013   9.196   7.981  0.0677  0.3569 -0.3672
 8777W        W18257  13.444  12.951   0.110  0.2984  0.0241  0.3024
 8778W        W18258  15.012  14.333   8.812  0.1196  0.1070  0.3589
 8779W        W18259   1.392   2.585   1.222  0.2681 -0.3425  0.0039
 8780W        W18260   3.252   6.623   7.305  0.1693 -0.1769 -0.0967
 8781W        W18261   2.656   0.511   8.862  0.1951 -0.0459 -0.0506
 8782W        W18262   8.135   9.975   0.767 -0.0577  0.1416  0.0774
 8783W        W18263   1.947   0.048   2.048  0.2707 -0.1736  0.2078
 8784W        W18264   5.434  13.552   0.430  0.1487  0.0994 -0.3614
 8785W        W18265   4.779   8.806   0.308 -0.0817  0.1398 -0.2687
 8786W        W18266   9.138   5.334   7.313  0.1759  0.0878 -0.0376
 8787W        W18267  11.853   8.370   1.491 -0.1612  0.2045  0.3804
 8788W        W18268   6.454  14.545   0.746 -0.1382 -0.0586  0.0628
 8789W        W18269   2.971   0.333   7.009 -0.0854 -0.1671 -0.0651
 8790W        W18270   0.990   2.465   2.611  0.2440  0.1854  0.0020
 8791W        W18271   0.634  13.570   7.474 -0.1352 -0.0442 -0.0702
 8792W        W18272   3.080   1.199   1.304 -0.2209  0.0544  0.2424
 8793W        W18273   2.502   9.810   9.018 -0.1609  0.3579  0.1311
 8794W        W18274   8.465   9.160   2.108  0.0070  0.1238  0.1183
 8795W        W18275   1.325  12.870   7.767  0.1507 -0.0830 -0.0971
 8796W        W18276  14.745   0.116   7.439  0.1286  0.2853 -0.1714
 8797W        W18277   4.863  13.161   0.483  0.1810 -0.4333  0.2850
 8798W        W18278   5.761  15.148   1.911  0.4229  0.1182 -0.3750
 8799W        W18279   6.022  13.262   8.722 -0.2424 -0.2350 -0.1922
 8800W        W18280   7.255  12.052   0.410 -0.2820 -0.1600 -0.1023
 8801W        W18281   2.281  12.981   2.762 -0.1553  0.0023 -0.2168
 8802W        W18282  12.510   8.973   0.897 -0.0604  0.3041 -0.2391
 8803W        W18283  14.628   7.831   0.043 -0.3657 -0.1267  0.0250
 8804W        W18284   2.567  10.449   8.182  0.1573 -0.0419  0.1945
 8805W        W18285  11.813  11.606   6.777 -0.1667  0.1357  0.2427
 8806W        W18286  14.927  12.631   2.533  0.1512 -0.0869 -0.0448
 8807W        W18287   2.882  15.327   0.992  0.1156  0.1345 -0.3034
 8808W        W18288  12.963   5.882   2.116  0.0182 -0.0934 -0.1911
 8809W        W18289   2.616  11.928   7.816 -0.0822  0.0126  0.1713
 8810W        W18290   0.087   0.411   7.119  0.0611  0.3696  0.1518
 8811W        W18291  14.510   7.143   8.399 -0.1790  0.2811 -0.0185
 8812W        W18292   0.688   1.934   1.716  0.1894  0.0638 -0.0982
 8813W        W18293  10.566   9.542   1.229 -0.0843 -0.1195 -0.4020
 8814W        W18294   2.347   9.432   1.679 -0.1489 -0.0215 -0.1140
 8815W        W18295   1.137  12.916   2.614  0.3523  0.2368 -0.1412
 8816W        W18296   0.024  15.406   7.535  0.0346  0.1509 -0.1833
 8817W        W18297   3.671   6.885   2.107  0.3641 -0.0193  0.0848
 8818W        W18298   4.862   8.424   1.371 -0.0440 -0.2334  0.3397
 8819W        W18299   3.464   8.343   1.910 -0.0785 -0.1110  0.0038
 8820W        W18300   4.252  15.235   8.287  0.0231 -0.1450  0.4346
 8821W        W18301   9.992   3.957   0.370  0.1218  0.5058  0.1032
 8822W        W18302   6.730  10.279   8.631  0.0464  0.0744  0.2306
 8823W        W18303   4.726  15.376   8.173 -0.1205 -0.3552  0.0736
 8824W        W18304   1.571  14.539   8.133  0.1790 -0.1428  0.0893
 8825W        W18305  12.682   7.699   0.100  0.1601  0.1406  0.2434
 8826W        W18306  13.607   0.344   0.698 -0.0164 -0.0152  0.0880
 8827W        W18307  15.233   6.247   2.487 -0.1671  0.1396  0.0925
 8828W        W18308   3.321   3.417   1.397 -0.0555  0.0551  0.2477
 8829W        W18309   3.366  10.736   8.752 -0.2440 -0.0812  0.0977
 8830W        W18310   9.284  11.876   1.090 -0.3020  0.1162 -0.0382
 8831W        W18311  14.686   8.604   1.175  0.0108 -0.0409  0.0117
 8832W        W18312   3.215   8.768   2.208  0.0359 -0.0108  0.3881
 8833W        W18313   4.168  12.119   7.019  0.1849  0.2479 -0.0850
 8834W        W18314  15.051  14.076   1.995 -0.1562 -0.0727 -0.0097
 8835W        W18315  14.836   8.051   7.840  0.2402  0.2299 -0.0806
 8836W        W18316   1.142   4.179   0.851  0.0176 -0.3058  0.1613
 8837W        W18317   3.458  10.886   2.481  0.1113  0.0517  0.1105
 8838W        W18318   3.795   0.435   2.217 -0.0305 -0.0198 -0.0037
 8839W        W18319   0.859   9.771   0.033  0.0526  0.1067 -0.1444
 8840W        W18320   5.309  11.887   8.120 -0.0102  0.0206  0.2574
 8841W        W18321   7.746   9.181   7.692  0.0434 -0.3005 -0.5304
 8842W        W18322   2.104   0.870   8.034 -0.1043  0.0643  0.2422
 8843W        W18323   1.959   4.093   0.707  0.4024 -0.1363 -0.1182
 8844W        W18324   7.606   1.023   1.022 -0.0916  0.1454  0.1518
 8845W        W18325   1.705  15.414   8.013 -0.4333 -0.3361 -0.6559
 8846W        W18326  14.333  12.837   1.186 -0.2741  0.0327 -0.0285
 8847W        W18327   2.974  13.937   8.074  0.0967  0.5816 -0.0091
 8848W        W18328  14.983  14.903   1.656  0.0525  0.2265 -0.3247
 8849W        W18329   2.498  10.965   8.338  0.0662 -0.0663  0.4037
 8850W        W18330  13.911   0.724   0.960  0.0955  0.1389  0.1127
 8851W        W18331   5.081   1.002   7.071 -0.0413  0.2445  0.0050
 8852W        W18332   3.626  14.380   1.648 -0.1249  0.1808  0.0027
 8853W        W18333   1.868  11.710   0.798  0.2215 -0.1064 -0.2446
 8854W        W18334   5.033  14.527   0.521 -0.0429 -0.1016  0.1239
 8855W        W18335   6.606  12.037   7.732  0.0141 -0.0020 -0.1247
 8856W        W18336   7.043  12.514   2.169 -0.1451 -0.0079  0.0694
 8857W        W18337   6.909   6.136   8.521  0.0214 -0.3117  0.1623
 8858W        W18338   0.971   1.340   9.025 -0.1698  0.0989  0.0263
 8859W        W18339  13.099  12.092   0.807 -0.1945 -0.0607  0.0060
 8860W        W18340   7.748  10.615   1.471 -0.2465  0.0369 -0.0538
 8861W        W18341   5.919  14.844   0.632 -0.0319  0.3163  0.1634
 8862W        W18342   3.266   0.109   7.895  0.0748  0.0071  0.1468
 8863W        W18343   8.749  12.757   2.704 -0.0582  0.1080 -0.0880
 8864W        W18344   4.784   7.918   1.400  0.0472 -0.1271 -0.2407
 8865W        W18345   8.990   9.833   1.917 -0.1348  0.2834 -0.0045
 8866W        W18346   2.743  11.156   2.370  0.0967  0.3275  0.0492
 8867W        W18347   6.570   6.103   6.699  0.2046  0.2562  0.1811
 8868W        W18348   9.053  10.311   2.069  0.0115  0.0970  0.1247
 8869W        W18349   4.505  11.666   2.677  0.0380 -0.0554 -0.1327
 8870W        W18350  14.424   3.858   0.208  0.3210 -0.0282  0.0287
 8871W        W18351  14.331   9.314   1.796  0.1890  0.0944 -0.0605
 8872W        W18352   4.940  12.690   0.840 -0.2862  0.1989 -0.1085
 8873W        W18353   5.621  11.234   1.675  0.2565 -0.1395 -0.1095
 8874W        W18354  14.959  10.886   0.827 -0.0886 -0.0744 -0.1581
 8875W        W18355   4.906   4.910   7.972 -0.0495 -0.0933  0.0989
 8876W        W18356   4.584   9.673   1.616 -0.0644 -0.0721 -0.1642
 8877W        W18357   9.184   9.777   6.791  0.0817 -0.1768  0.0714
 8878W        W18358   7.956   2.895   8.646  0.1140 -0.1564  0.0528
 8879W        W18359   5.535   2.266   2.095 -0.1619 -0.0888  0.0720
 8880W        W18360   0.294  11.874   8.815 -0.3037 -0.0378  0.1500
 8881W        W18361   4.513  14.745   8.976  0.1492 -0.1676  0.2525
 8882W        W18362   6.903   7.905   7.905 -0.0839  0.2868 -0.0346
 8883W        W18363   6.355   2.213   8.663  0.0456 -0.1034  0.0928
 8884W        W18364   5.197  14.329   1.350  0.0129  0.3521 -0.1717
 8885W        W18365   1.472  10.186   1.888 -0.1554  0.0764  0.0457
 8886W        W18366   7.411  12.498   0.014 -0.0009 -0.2005 -0.0086
 8887W        W18367   1.686  14.561   2.178  0.0995 -0.2942 -0.0342
 8888W        W18368  12.066   2.721   6.926 -0.2304  0.2770 -0.2369
 8889W        W18369   1.914  12.068   0.108 -0.2596 -0.3617  0.1155
 8890W        W18370  10.642   6.279   1.654  0.3801 -0.2511  0.3030
 8891W        W18371   4.623  14.318   8.749 -0.2359 -0.1431 -0.0560
 8892W        W18372   6.247   2.274   0.534  0.0468  0.4922  0.1259
 8893W        W18373   4.529   4.714   2.478  0.0696  0.0642  0.4620
 8894W        W18374   7.610   8.863   6.799 -0.1160 -0.2119  0.2988
 8895W        W18375   6.547   8.369   0.112 -0.1160  0.1270  0.1895
 8896W        W18376   7.765   8.255   0.505 -0.2379  0.1360  0.1520
 8897W        W18377   3.843   0.988   3.051 -0.0594  0.3146 -0.1164
 8898W        W18378   8.814  12.960   1.030  0.1134  0.1622 -0.1675
 8899W        W18379   4.572   2.157   2.332 -0.0885  0.2562  0.0399
 8900W        W18380   1.692  12.509   7.683 -0.1882 -0.2801  0.0093
 8901W        W18381   1.560  10.609   1.419 -0.4308 -0.0836 -0.2008
 8902W        W18382   6.250  11.209   0.575  0.0144  0.1215  0.0293
 8903W        W18383   0.106   5.837   2.334  0.2321 -0.2042 -0.3089
 8904W        W18384   6.791  13.485   7.310  0.0771 -0.3596  0.0907
 8905W        W18385   3.150   9.898   1.333 -0.1797  0.0280  0.0800
 8906W        W18386  10.643   1.510   2.125 -0.0000  0.1016  0.2230
 8907W        W18387   3.534  13.248   6.903  0.1390  0.0457  0.0763
 8908W        W18388   2.050   4.539   7.414  0.3750 -0.1105 -0.0541
 8909W        W18389   0.230   7.096   7.851  0.1103 -0.0398 -0.2511
 8910W        W18390   6.692   0.028   0.985 -0.2237  0.1187 -0.1404
 8911W        W18391   0.387   9.342   0.600 -0.0262  0.2733 -0.0315
 8912W        W18392   9.071  12.358   6.867 -0.2767  0.1359  0.1032
 8913W        W18393   1.765  10.390   0.379  0.0992 -0.3719 -0.2474
 8914W        W18394   9.148   9.536   0.181  0.2256 -0.0197  0.2196
 8915W        W18395  13.765   1.292   2.251 -0.2240 -0.1242  0.0617
 8916W        W18396   2.564  13.769   7.746 -0.0006  0.1895  0.1216
 8917W        W18397  10.604  14.403   2.730 -0.0162  0.1414  0.2640
 8918W        W18398   7.553   9.620   0.912 -0.3162 -0.0721 -0.0520
 8919W        W18399  15.060   9.530   7.656 -0.0114 -0.3312  0.2095
 8920W        W18400   4.660   0.857   2.623  0.0112  0.3877  0.3167
 8921W        W18401   0.471  11.810   1.750 -0.2491 -0.3408  0.2755
 8922W        W18402  10.774   2.663   6.571  0.0072  0.2803 -0.0793
 8923W        W18403   1.385   9.037   1.256  0.0687  0.2494  0.0505
 8924W        W18404   7.095  11.428   8.455  0.1569  0.1197 -0.0516
 8925W        W18405   3.301   7.349   1.420  0.1026  0.3059  0.0819
 8926W        W18406   6.957   8.535   1.788  0.0670  0.0329 -0.1045
 8927W        W18407   9.731   4.397   0.109 -0.0542 -0.2470  0.3932
 8928W        W18408   7.231   8.032   1.626  0.0799 -0.2473  0.2807
 8929W        W18409   6.306   6.843   1.866  0.1496  0.0723 -0.0671
 8930W        W18410   4.984  15.029   2.468 -0.2966  0.0512  0.1028
 8931W        W18411  11.539   7.122   1.440 -0.3723  0.0037 -0.1338
 8932W        W18412  15.447  11.707   1.341 -0.0792 -0.0148 -0.1258
 8933W        W18413   7.203  13.837   1.544  0.0766 -0.1514  0.0208
 8934W        W18414   7.563  12.879   8.229 -0.3599  0.0093 -0.2642
 8935W        W18415   5.363   0.630   7.582  0.0712  0.0421  0.3306
 8936W        W18416   3.057  15.156   8.291 -0.0380  0.1225  0.4160
 8937W        W18417   4.817  10.260   8.141 -0.1320  0.2375 -0.2374
 8938W        W18418   0.609   9.471   1.828  0.1221 -0.0361 -0.1588
 8939W        W18419   5.299   3.212   1.004 -0.2821  0.4200 -0.1523
 8940W        W18420   6.190  15.416   6.760 -0.1149  0.0763 -0.1050
 8941W        W18421   5.498  14.999   2.372  0.1523  0.0661 -0.1416
 8942W        W18422  11.353  12.010   1.749  0.1500 -0.1756 -0.1697
 8943W        W18423   1.371  12.410   2.053  0.2795 -0.1140  0.1561
 8944W        W18424   6.184   0.939   0.634 -0.1631  0.0847 -0.2498
 8945W        W18425   8.250  14.096   2.407  0.2160 -0.0606  0.0670
 8946W        W18426   6.773   6.352   7.636  0.0578  0.1065  0.3487
 8947W        W18427   3.670  12.863   8.255 -0.0320 -0.0964  0.1820
 8948W        W18428   4.487   9.480   0.272 -0.1489 -0.0518 -0.3086
 8949W        W18429   5.798  14.808   1.097  0.0596  0.0939  0.2213
 8950W        W18430   2.379   6.319   1.707 -0.1154  0.0839  0.0502
 8951W        W18431   7.161   8.806   0.619  0.0334  0.0604 -0.0269
 8952W        W18432  13.850   8.312   1.025 -0.1281 -0.1483 -0.1985
 8953W        W18433  11.370  13.022   0.756  0.1693 -0.0747 -0.0411
 8954W        W18434  12.515  10.992   0.520  0.3653 -0.0271 -0.0967
 8955W        W18435  10.830  11.464   9.071 -0.1943 -0.0592 -0.0726
 8956W        W18436   7.714  13.346   8.304  0.2142 -0.2416  0.1892
 8957W        W18437   8.140  10.715   2.647 -0.0754  0.1262 -0.0048
 8958W        W18438   1.099  10.277   7.934  0.0800  0.1904  0.0558
 8959W        W18439   8.613   7.301   8.725  0.1316 -0.2991  0.1594
 8960W        W18440   7.414   8.533   0.275  0.1076  0.0631  0.1400
 8961W        W18441   2.010  14.212   8.335  0.3184  0.0992 -0.2228
 8962W        W18442   6.179  12.203   9.087  0.1765  0.1225 -0.0843
 8963W        W18443  11.072  15.218   8.587 -0.1006 -0.1912  0.2405
 8964W        W18444   6.384   9.780   7.339 -0.0674  0.2005  0.0630
 8965W        W18445  14.352   7.984   8.770  0.1865  0.1324  0.0032
 8966W        W18446   2.498   1.219   7.673 -0.2021 -0.1377 -0.0460
 8967W        W18447   8.128   6.552   8.037 -0.3236  0.3446  0.0717
 8968W        W18448   7.679  12.344   2.288  0.0497 -0.0144 -0.2171
 8969W        W18449   1.379   8.207   6.788  0.0021 -0.1422 -0.5138
 8970W        W18450   0.827   0.731   0.984  0.0515 -0.3492  0.1134
 8971W        W18451   6.883   9.568   0.254 -0.1681  0.1727  0.0131
 8972W        W18452  14.873   3.700   6.762  0.2355 -0.4867  0.2673
 8973W        W18453  12.226   8.439   7.639 -0.0599 -0.2355  0.3112
 8974W        W18454  10.671  14.262   0.850 -0.0097  0.0196 -0.0807
 8975W        W18455   3.935  11.617   6.921  0.1894 -0.0561 -0.0627
 8976W        W18456   4.268  15.141   8.814 -0.0252 -0.0789  0.2142
 8977W        W18457   1.557  14.740   7.642  0.0197 -0.1953  0.1065
 8978W        W18458   5.845   3.960   1.121 -0.1601 -0.1400 -0.1708
 8979W        W18459   9.303  15.041   7.901  0.0995  0.2846  0.0178
 8980W        W18460   4.466   8.669   2.522  0.0882  0.0122 -0.0741
 8981W        W18461  11.043   5.968   1.485 -0.2194  0.0313  0.0737
 8982W        W18462   2.564   5.560   7.171  0.1881 -0.3136  0.3256
 8983W        W18463   2.293  10.289   7.702 -0.4066 -0.0521  0.0977
 8984W        W18464   6.044  10.667   7.106 -0.2197 -0.2368  0.3864
 8985W        W18465   7.705   2.117   2.462  0.2851 -0.2119  0.2550
 8986W        W18466  14.000  13.487   2.706  0.1226  0.5082  0.5079
 8987W        W18467   5.305   9.590   1.392 -0.0937  0.4300 -0.1631
 8988W        W18468   9.899  12.642   6.505  0.0313  0.1105  0.1793
 8989W        W18469   2.968   4.161   7.571  0.2550  0.1786 -0.3010
 8990W        W18470   8.654   6.623   0.744 -0.1442  0.0904  0.0627
 8991W        W18471   4.898  12.963   7.743  0.1922  0.5004  0.3349
 8992W        W18472   3.166   9.282   0.292  0.0282 -0.3752 -0.1194
 8993W        W18473   9.720   9.485   1.499 -0.1136  0.1463  0.0794
 8994W        W18474   1.870  15.069   7.076 -0.0033  0.0251 -0.3176
 8995W        W18475  10.386   0.650   0.203 -0.1875  0.1698  0.0262
 8996W        W18476   5.497   5.406   1.074 -0.0321 -0.0048 -0.1354
 8997W        W18477  10.237  15.314   1.340  0.2022  0.0018 -0.5415
 8998W        W18478   8.123   9.197   8.227 -0.0323  0.3359  0.1753
 8999W        W18479  10.314  11.766   2.826  0.0338 -0.1055  0.0441
 9000W        W18480  10.437  10.186   7.093 -0.2548  0.0526 -0.1022
 9001W        W18481   5.768  12.739   7.616 -0.0253 -0.1236 -0.0124
 9002W        W18482   7.827   8.781   8.593 -0.3814  0.1326 -0.0443
 9003W        W18483   6.761  15.233   1.415  0.3481 -0.1096  0.2536
 9004W        W18484   3.323   3.463   2.260 -0.0088  0.3043 -0.1948
 9005W        W18485   3.182  11.488   0.770  0.2884 -0.0832 -0.0539
 9006W        W18486   4.807  13.112   1.481  0.1240  0.0057 -0.3362
 9007W        W18487   2.429  10.711   1.555 -0.1702  0.0355 -0.1096
 9008W        W18488   7.504   8.362   8.410  0.0821 -0.1501 -0.3501
 9009W        W18489   3.697   9.867   1.531  0.1206  0.1582  0.1130
 9010W        W18490  15.143  10.998   8.694 -0.0077 -0.2373 -0.1878
 9011W        W18491   3.305  12.678   0.340 -0.1680 -0.1714 -0.0058
 9012W        W18492   6.466  10.173   7.025  0.1240 -0.1419 -0.0282
 9013W        W18493   9.013  12.923   2.284  0.0163 -0.0930  0.1154
 9014W        W18494   6.968  11.306   1.869 -0.0365 -0.0814 -0.3756
 9015W        W18495   4.944  10.658   1.728 -0.1920  0.0985 -0.2364
 9016W        W18496   6.767  11.402   8.933 -0.1039  0.0708  0.4251
 9017W        W18497  14.798   0.978   8.015 -0.2302 -0.4274 -0.3581
 9018W        W18498   8.787  12.091   1.314 -0.0809  0.2414  0.3296
 9019W        W18499   1.184  12.256   1.198  0.1808  0.2033 -0.1317
 9020W        W18500   6.973  13.964   2.143  0.3637  0.1686 -0.0238
 9021W        W18501  14.423  14.202   0.582  0.1096  0.0263  0.0299
 9022W        W18502   7.684  13.142   7.377  0.1307  0.0359 -0.0996
 9023W        W18503   0.553   7.632   0.822  0.0356  0.2380  0.1744
 9024W        W18504   5.500   9.258   1.961  0.1590  0.1845 -0.2239
 9025W        W18505   5.271  13.448   2.930  0.0234 -0.0883  0.0075
 9026W        W18506   2.811   0.659   6.670 -0.1538 -0.1396 -0.1090
 9027W        W18507   4.983  14.528   0.006 -0.1207  0.1691 -0.1870
 9028W        W18508   3.435  13.192   7.990  0.2358 -0.4032 -0.0226
 9029W        W18509   2.998  13.273   0.383 -0.1594 -0.2556 -0.0630
 9030W        W18510   0.897   7.878   8.027  0.1523  0.3957  0.1177
 9031W        W18511   0.622   9.295   0.110 -0.1164  0.2312 -0.2010
 9032W        W18512   2.742   8.370   0.154  0.3155  0.0720 -0.0744
 9033W        W18513  15.183  12.110   1.188 -0.1444  0.0593 -0.0375
 9034W        W18514  14.918  11.729   2.020  0.1840 -0.0905  0.3309
 9035W        W18515   1.978   3.272   1.455 -0.0407  0.2811  0.1517
 9036W        W18516   2.015  14.625   7.400  0.1870 -0.1951  0.1751
 9037W        W18517   7.824   7.999   8.636 -0.3008 -0.3395 -0.1176
 9038W        W18518   9.868   9.278   7.225  0.1342 -0.0674  0.0124
 9039W        W18519   3.059   8.056   0.923  0.3331  0.0179 -0.0262
 9040W        W18520  12.656   3.546   7.759  0.5190  0.0486 -0.4502
 9041W        W18521  10.625  10.627   6.860 -0.3214 -0.1815 -0.1404
 9042W        W18522   0.782   9.799   1.353 -0.0838 -0.3204 -0.0820
 9043W        W18523   0.904  13.821   0.028  0.3172 -0.0597  0.0409
 9044W        W18524   8.508  14.761   0.303 -0.1645  0.0817  0.0811
 9045W        W18525   5.637  12.356   7.277  0.3235 -0.1539 -0.3512
 9046W        W18526  12.270  11.389   6.731 -0.1303 -0.3241 -0.0556
 9047W        W18527   0.895  11.529   1.819  0.1567 -0.1104  0.0438
 9048W        W18528  10.187   6.151   1.819 -0.0875 -0.2007 -0.3948
 9049W        W18529   4.544  11.010   0.890 -0.1126 -0.3424 -0.0571
 9050W        W18530   2.872  10.834   1.245  0.1138 -0.2801 -0.0013
 9051W        W18531   3.479  14.390   2.174 -0.0077 -0.0223  0.3446
 9052W        W18532   0.761   7.794   1.734 -0.0562 -0.3286 -0.0913
 9053W        W18533   5.400   1.766   2.116  0.2223  0.2551 -0.2176
 9054W        W18534   4.911  12.006   2.607 -0.2658 -0.0539  0.2615
 9055W        W18535  14.920  11.608   2.515  0.2701  0.4296  0.2391
 9056W        W18536   1.996  13.596   1.156 -0.2041  0.3476 -0.1789
 9057W        W18537   0.350   9.999   8.814 -0.1091  0.1305 -0.1745
 9058W        W18538   9.926  14.227   2.080 -0.1914  0.1932 -0.1311
 9059W        W18539   7.156  14.369   1.855  0.0441 -0.1352  0.0798
 9060W        W18540  12.808  12.986   8.907  0.2810  0.0244 -0.1434
 9061W        W18541   6.105  12.337   6.783 -0.0061  0.1136 -0.0084
 9062W        W18542   6.268  14.484   7.501 -0.1297  0.0267  0.2035
 9063W        W18543   5.562  12.852   8.070  0.0248 -0.1208 -0.1646
 9064W        W18544  14.275  14.104   1.466 -0.1077  0.3965  0.1961
 9065W        W18545   6.710   7.756   6.603 -0.0757 -0.0432  0.1388
 9066W        W18546  11.084  12.364   6.731 -0.0695  0.0409  0.2514
 9067W        W18547  10.576  13.565   7.863  0.0327  0.0910  0.0281
 9068W        W18548   4.899  12.217   9.072 -0.1550 -0.0642 -0.2802
 9069W        W18549   3.470  15.413   6.601 -0.0237 -0.1869  0.0573
 9070W        W18550  12.989   1.186   1.678  0.2068  0.0638 -0.1593
 9071W        W18551   8.037  12.442   6.815 -0.0337  0.3283 -0.0924
 9072W        W18552  10.697  15.358   8.167  0.1444  0.1725  0.0122
 9073W        W18553   6.338  10.998   8.832  0.1573 -0.1616 -0.0862
 9074W        W18554  11.998  11.917   8.183  0.2900  0.2532 -0.1758
 9075W        W18555  10.882  13.980   7.285 -0.3116  0.2507  0.1546
 9076W        W18556   6.538   0.506   1.032  0.0450  0.0667 -0.1028
 9077W        W18557  10.821  14.524   7.112  0.0115  0.0260  0.4167
 9078W        W18558  14.074   8.032   0.606 -0.1453 -0.0457 -0.0482
 9079W        W18559   2.243   6.019   8.646 -0.1297 -0.0884 -0.1523
 9080W        W18560   9.903  13.550   2.537  0.0944  0.3883  0.0685
 9081W        W18561   6.883  13.186   8.732 -0.0513  0.1508 -0.3598
 9082W        W18562   7.015   8.284   9.064  0.5453 -0.0568  0.2088
 9083W        W18563   8.477  11.115   7.496  0.0849 -0.1426  0.1839
 9084W        W18564  11.557  12.063   6.767 -0.0266 -0.1359  0.0505
 9085W        W18565   4.932   8.596   2.314 -0.0666 -0.1560  0.0140
 9086W        W18566   5.169  12.979   8.332  0.0648 -0.1574 -0.2165
 9087W        W18567   8.566   0.918   0.847 -0.4881  0.0284 -0.0130
 9088W        W18568   5.204   7.923   1.746 -0.1126 -0.1283  0.0460
 9089W        W18569   8.349   1.049   1.699 -0.1222 -0.1012  0.1050
 9090W        W18570   7.863   9.606   1.751 -0.0078 -0.1642 -0.2930
 9091W        W18571   4.018   7.416   2.269 -0.0136  0.0929  0.2009
 9092W        W18572   9.619   9.174   6.779  0.1674  0.1489 -0.1746
 9093W        W18573  11.927  10.776   1.384  0.0125 -0.2300 -0.0276
 9094W        W18574   5.113  14.789   1.466  0.0737 -0.1150  0.0112
 9095W        W18575   8.797   0.990   0.342 -0.1788 -0.0458  0.1035
 9096W        W18576   1.152  10.666   1.679 -0.2842 -0.1439  0.0561
 9097W        W18577   6.085  14.108   8.336  0.0902  0.0993 -0.0140
 9098W        W18578   8.945  11.266   2.763 -0.4191  0.2183 -0.1197
 9099W        W18579   5.345   9.988   1.995  0.1819 -0.4103  0.0790
 9100W        W18580  15.389   6.596   1.497  0.1845  0.2010  0.2605
 9101W        W18581   3.280   7.150   0.480  0.0419  0.0567 -0.1804
 9102W        W18582   6.288  12.758   7.667  0.0041  0.2581  0.1438
 9103W        W18583   7.181   9.188   0.088 -0.1489 -0.0696  0.2676
 9104W        W18584  15.242  13.987   1.307  0.0405 -0.3121  0.0217
 9105W        W18585   9.739  11.557   0.304  0.0188  0.1564  0.1213
 9106W        W18586  11.715  13.670   2.513  0.1192 -0.4017 -0.1249
 9107W        W18587  13.270  13.372   1.983 -0.1881  0.2945  0.0655
 9108W        W18588   7.872  12.739   1.480 -0.1210  0.2461  0.3499
 9109W        W18589  15.356  11.301   0.049 -0.0981 -0.2153 -0.1552
 9110W        W18590   6.635  11.281   1.522  0.0365  0.4480  0.2268
 9111W        W18591   1.768  12.283   6.931 -0.0493 -0.2516 -0.1481
 9112W        W18592  10.742  13.190   6.645 -0.1406 -0.0487 -0.0243
 9113W        W18593  12.340   0.549   2.215  0.2977 -0.0977 -0.1927
 9114W        W18594   8.726  13.151   1.531 -0.2730 -0.0726  0.2933
 9115W        W18595   9.846   5.078   8.658 -0.4001  0.4323  0.1550
 9116W        W18596   8.784   9.915   0.262  0.1560 -0.1641  0.0406
 9117W        W18597  10.855  13.398   7.512  0.0460 -0.1015  0.2138
 9118W        W18598   9.228  11.398   7.488  0.1716  0.3479  0.1252
 9119W        W18599  11.653  12.091   7.817  0.0080 -0.0046 -0.1829
 9120W        W18600  10.496   0.232   2.431 -0.0830  0.1389 -0.2289
 9121W        W18601   5.801  14.807   7.463  0.2189  0.0907  0.0522
 9122W        W18602  10.724  13.532   0.440 -0.2616 -0.0587  0.3209
 9123W        W18603   7.905   3.384   2.120 -0.3422  0.0894 -0.3022
 9124W        W18604   6.781  14.277   0.405 -0.2121  0.2664  0.2332
 9125W        W18605  11.127   8.625   0.365  0.1092  0.2887 -0.0689
 9126W        W18606   1.055   8.312   1.064 -0.1183  0.2339  0.3212
 9127W        W18607  10.559   9.752   1.729  0.0015  0.2019 -0.1187
 9128W        W18608   6.051   1.326   0.073 -0.0670 -0.1567 -0.2112
 9129W        W18609   7.251   6.739   8.928  0.1825 -0.0907  0.0402
 9130W        W18610   9.490   6.910   0.502 -0.2996 -0.2262 -0.2304
 9131W        W18611   6.051  15.135   2.451  0.0754 -0.0696 -0.2513
 9132W        W18612  10.038   9.560   1.869 -0.3249 -0.0257  0.0925
 9133W        W18613   2.486   9.793   2.113 -0.0024  0.0698 -0.4148
 9134W        W18614  11.767   6.537   8.104  0.3962 -0.0245 -0.0380
 9135W        W18615   9.206  13.659   8.980 -0.4298  0.0591 -0.2027
 9136W        W18616  12.742  10.309   8.399  0.3379  0.0149  0.2392
 9137W        W18617   7.912  15.080   8.139 -0.4003  0.1632  0.1716
 9138W        W18618   8.782   3.206   1.542  0.3032  0.1340 -0.1452
 9139W        W18619   6.112  15.418   8.866 -0.0046  0.0091  0.0783
 9140W        W18620   7.205  13.136   2.484  0.0887 -0.0514  0.2783
 9141W        W18621  12.808  11.098   1.469 -0.0242  0.1962 -0.1452
 9142W        W18622   5.679   9.476   2.694 -0.0458  0.0762  0.3917
 9143W        W18623  12.922   0.043   8.233  0.5251  0.2200 -0.1785
 9144W        W18624   9.426   9.695   7.468 -0.2702 -0.0935  0.0256
 9145W        W18625   8.734  15.144   1.496 -0.2250  0.0032 -0.4294
 9146W        W18626   7.464   0.225   1.616 -0.0373 -0.3146  0.0814
 9147W        W18627  10.317   6.890   2.080 -0.2308  0.0587 -0.2058
 9148W        W18628   6.147  13.009   8.121 -0.0152 -0.1394 -0.2998
 9149W        W18629   2.645  11.467   0.734  0.0997  0.0672 -0.4145
 9150W        W18630   7.521  14.719   0.031 -0.3603  0.2793 -0.1052
 9151W        W18631  10.000  14.791   8.574  0.0281  0.0094 -0.2091
 9152W        W18632   6.010   1.142   1.549 -0.2169  0.1738  0.1059
 9153W        W18633   8.318  11.499   1.023  0.3078 -0.0182 -0.2009
 9154W        W18634   6.926  15.342   7.895 -0.3052  0.0791  0.0772
 9155W        W18635   6.892   6.521   1.407  0.0353 -0.3308  0.3187
 9156W        W18636   3.913  10.607   8.898  0.0876 -0.4232  0.0816
 9157W        W18637  12.961  13.867   8.787  0.1640  0.2452  0.1142
 9158W        W18638   9.404  14.826   1.060 -0.0063 -0.1664  0.2104
 9159W        W18639   7.084  15.143   0.071 -0.2064  0.3133 -0.0633
 9160W        W18640  10.899   8.203   0.238 -0.0054 -0.0613  0.1406
 9161W        W18641   9.752  12.291   0.334 -0.0866 -0.1844 -0.0263
 9162W        W18642  10.103  15.000   2.325  0.0792 -0.0707  0.2587
 9163W        W18643   3.690  12.492   1.952  0.2260 -0.0431 -0.2024
 9164W        W18644   9.472  12.588   1.705  0.1546  0.0666 -0.1483
 9165W        W18645   0.949   9.185   0.526 -0.2048 -0.2050  0.3047
 9166W        W18646   2.610  13.961   7.212 -0.2513  0.0736  0.0576
 9167W        W18647   4.466  10.121   1.031 -0.0210  0.0327 -0.2808
 9168W        W18648  12.868   7.433   0.541  0.0377  0.1804  0.0816
 9169W        W18649   7.475  10.554   1.920 -0.1645  0.1166  0.3829
 9170W        W18650  11.536  12.020   0.287  0.0892 -0.0190 -0.1340
 9171W        W18651   5.423  11.392   7.964  0.0193 -0.5023 -0.0229
 9172W        W18652   9.082   8.493   0.206  0.3126  0.0671  0.0837
 9173W        W18653  12.408   9.901   0.643  0.0204  0.4034  0.0669
 9174W        W18654   5.303   8.528   2.613  0.1771 -0.1618 -0.1433
 9175W        W18655   1.813  13.310   7.319 -0.1450 -0.2514  0.2976
 9176W        W18656   2.979  15.162   2.074  0.0594  0.1126 -0.1040
 9177W        W18657   8.359   8.787   6.419 -0.3330  0.1207  0.0757
 9178W        W18658   9.841  10.301   7.168  0.5042  0.3188 -0.2432
 9179W        W18659   5.479   6.180   1.653 -0.1240  0.2191 -0.1569
 9180W        W18660   7.044  11.000   1.280 -0.0090 -0.3007 -0.1366
 9181W        W18661   2.419  10.173   0.921  0.3690  0.1477 -0.1098
 9182W        W18662   9.327   1.483   1.928 -0.2452 -0.0547 -0.0636
 9183W        W18663   6.217  14.190   0.157 -0.1169  0.1618 -0.1258
 9184W        W18664  13.606   7.993   8.899  0.0567  0.0831  0.0668
 9185W        W18665   7.226  11.836   7.826  0.1578  0.5368  0.0407
 9186W        W18666  10.563   2.061   1.278 -0.2240 -0.1006  0.0417
 9187W        W18667   4.611   9.879   7.225  0.2091  0.1719  0.2041
 9188W        W18668  10.877   7.608   6.524  0.3084  0.3005  0.3285
 9189W        W18669  12.671   1.351   1.253 -0.0491  0.3606 -0.2008
 9190W        W18670  11.984  13.452   6.226 -0.2572  0.2059 -0.4897
 9191W        W18671  13.180   6.268   8.341  0.0067  0.2836 -0.1945
 9192W        W18672  10.200   7.627   0.446  0.0831  0.1055  0.0400
 9193W        W18673   4.745  11.426   7.373 -0.2422 -0.0186 -0.0590
 9194W        W18674   9.237  11.655   0.246  0.0261  0.4370  0.3184
 9195W        W18675   1.411  12.111   1.638  0.1935  0.3091  0.1377
 9196W        W18676  11.005  10.792   0.553 -0.3881 -0.0454  0.0806
 9197W        W18677   9.281  10.419   7.902 -0.0459 -0.1407  0.2071
 9198W        W18678   6.061   5.527   1.314 -0.0084  0.0195  0.1385
 9199W        W18679  10.148   7.841   9.036 -0.2221  0.0421  0.1995
 9200W        W18680  11.679   8.723   1.939 -0.4062 -0.1137  0.0831
 9201W        W18681   9.704  12.688   0.704 -0.0488 -0.0650 -0.0551
 9202W        W18682  13.061   9.541   2.188  0.3127 -0.1712  0.1157
 9203W        W18683   7.629   1.519   0.783  0.0619 -0.5318 -0.2880
 9204W        W18684   7.900  11.306   0.884  0.3817 -0.2386 -0.1854
 9205W        W18685  11.661  12.130   8.892  0.0232  0.2126 -0.0018
 9206W        W18686  10.769  11.455   0.551 -0.3289 -0.0221  0.1757
 9207W        W18687  12.100   8.987   2.063 -0.3490  0.0811 -0.1332
 9208W        W18688   7.136  13.016   1.071  0.0431 -0.0513  0.2306
 9209W        W18689  11.382   2.536   1.036  0.1230 -0.0066  0.0395
 9210W        W18690   4.569  11.888   0.573 -0.1295 -0.4335 -0.0018
 9211W        W18691   6.813   8.466   7.878 -0.2466  0.0464 -0.0907
 9212W        W18692   8.674   1.689   8.316  0.0785  0.5810  0.0582
 9213W        W18693   6.607   7.733   8.262  0.0396 -0.2044  0.0436
 9214W        W18694  13.153   7.020   0.510  0.2080 -0.0304 -0.0803
 9215W        W18695   3.744  13.505   2.161  0.0369 -0.3564 -0.4755
 9216W        W18696  12.904  10.879   8.420 -0.0210  0.5150 -0.1303
 9217W        W18697  13.125  14.796   1.746  0.2064  0.1256 -0.1093
 9218W        W18698  10.018  14.576   7.461  0.0940 -0.4272  0.2659
 9219W        W18699   8.042  11.463   7.736 -0.0017 -0.2281 -0.0302
 9220W        W18700  11.036  12.892   1.154 -0.1193  0.2680 -0.3662
 9221W        W18701   9.831   5.079   6.854  0.0021  0.0264  0.0308
 9222W        W18702   7.512  11.283   3.180 -0.0233  0.1378  0.0609
 9223W        W18703  13.368   5.092   6.605 -0.3774  0.0025 -0.1111
 9224W        W18704  10.386  11.318   2.051 -0.2120  0.1827 -0.0865
 9225W        W18705   0.678   8.300   0.162 -0.2601  0.1398 -0.2840
 9226W        W18706   6.729  12.754   8.450 -0.0471 -0.0999  0.0950
 9227W        W18707   6.842  10.580   1.547 -0.3121  0.1840  0.2558
 9228W        W18708   6.590   7.736   0.617  0.1813  0.0286 -0.0370
 9229W        W18709   5.351  13.552   1.024 -0.3228 -0.2267  0.1826
 9230W        W18710   4.522  10.219   2.429  0.2037 -0.0017  0.1475
 9231W        W18711  10.040   0.081   2.268  0.2507 -0.2178 -0.2437
 9232W        W18712   4.231  13.094   1.147  0.1861 -0.1833  0.2031
 9233W        W18713  10.583  10.844   1.893  0.4882 -0.0750  0.1153
 9234W        W18714  11.728   9.261   0.148  0.1389  0.2354  0.0892
 9235W        W18715  12.097   9.051   7.870  0.1308 -0.1642 -0.1044
 9236W        W18716   7.884   0.793   1.883 -0.3602 -0.2725 -0.0405
 9237W        W18717   0.058   9.788   8.423  0.1506  0.1893 -0.1055
 9238W        W18718   5.678   6.913   0.359  0.2521  0.0407 -0.2127
 9239W        W18719   4.473  14.587   0.505  0.2441 -0.1780  0.0201
 9240W        W18720   3.767  12.965   2.126  0.4253  0.3123 -0.0796
 9241W        W18721   8.008  11.843   1.242 -0.1169 -0.4341  0.0150
 9242W        W18722   5.412  14.292   1.798 -0.2336 -0.1560 -0.0683
 9243W        W18723   8.143   6.263   6.648  0.5098 -0.1609 -0.0289
 9244W        W18724  10.518  10.610   7.919  0.0813 -0.3857  0.1280
 9245W        W18725   8.226  10.027   1.600 -0.1587 -0.2537  0.1343
 9246W        W18726  10.904   6.256   9.036 -0.1375 -0.2378  0.1534
 9247W        W18727  13.896  15.337   7.284 -0.3391  0.0900  0.0464
 9248W        W18728  11.687   7.061   0.498 -0.0357 -0.1314  0.1550
 9249W        W18729   8.348  12.476   7.617  0.0096  0.2966 -0.0334
 9250W        W18730   6.801  14.361   2.332  0.0403 -0.1675 -0.0217
 9251W        W18731   9.609  13.029   2.617 -0.3944  0.1606 -0.2598
 9252W        W18732   8.904   0.027   1.114  0.1204  0.1657 -0.0895
 9253W        W18733   9.832  14.404   0.291  0.2751  0.1996  0.0305
 9254W        W18734   6.107  13.114   0.171 -0.0823 -0.2020 -0.2701
 9255W        W18735  12.470   8.770   6.841 -0.0801 -0.0814  0.3045
 9256W        W18736  13.814  10.011   7.054  0.4509  0.2115 -0.4223
 9257W        W18737   2.995   1.189   7.605  0.4286  0.1941  0.2840
 9258W        W18738   9.539   2.154   7.056 -0.2474  0.3063  0.2125
 9259W        W18739  10.008   0.614   0.819  0.3432  0.1105  0.1371
 9260W        W18740  11.133  13.834   1.353  0.0054  0.0278 -0.4946
 9261W        W18741  10.127  10.420   1.577  0.2137 -0.3076  0.3296
 9262W        W18742   7.517   6.278   8.907  0.0386 -0.0894  0.0141
 9263W        W18743  13.228  14.292   1.670  0.3138 -0.1154  0.0398
 9264W        W18744   1.422   6.713   1.148  0.0911  0.0201  0.1405
 9265W        W18745   8.690   8.570   0.580  0.3192 -0.2028 -0.1471
 9266W        W18746   0.070   6.712   0.676  0.3030 -0.2201  0.0697
 9267W        W18747   9.008   8.726   8.413 -0.2919  0.1616  0.0900
 9268W        W18748  12.283  14.154   1.416 -0.1219  0.1549  0.0510
 9269W        W18749   1.820   1.820   8.522  0.0309  0.1302 -0.0255
 9270W        W18750   6.888  11.637   6.917  0.1335  0.1345 -0.1866
 9271W        W18751   2.096  11.774   1.521 -0.1300 -0.0617 -0.3409
 9272W        W18752  13.620   7.426   1.062  0.1548  0.0044 -0.0358
 9273W        W18753  11.194  14.413   0.155  0.1461  0.1646 -0.1322
 9274W        W18754   9.080  10.030   7.637 -0.0322 -0.0463 -0.1426
 9275W        W18755   3.422  13.408   8.819  0.1251 -0.3618  0.0070
 9276W        W18756   5.701  13.526   1.369  0.0553 -0.2309 -0.3456
 9277W        W18757   1.579   6.861   6.845 -0.1448 -0.2368  0.2261
 9278W        W18758  14.900   6.950   8.139 -0.0299  0.4902 -0.0556
 9279W        W18759   5.229   8.881   9.077 -0.0152  0.0438  0.0702
 9280W        W18760   8.293   9.675   8.151  0.3322  0.1166 -0.2329
 9281W        W18761  13.668  14.596   2.425  0.2255  0.0700  0.1379
 9282W        W18762   9.057   4.631   2.430 -0.2534 -0.1161 -0.0958
 9283W        W18763   7.315   0.278   7.896  0.3073 -0.0089  0.5766
 9284W        W18764   8.294   8.928   8.714 -0.2256  0.2655  0.1891
 9285W        W18765  15.038   5.655   0.541 -0.3148  0.0065 -0.0944
 9286W        W18766   6.283  14.629   0.316 -0.0429 -0.1447 -0.3712
 9287W        W18767  11.039  10.134   0.188 -0.3961 -0.2434 -0.0231
 9288W        W18768  10.778  12.624   0.196 -0.0372  0.2456  0.1356
 9289W        W18769  10.149  13.437   7.066  0.0866 -0.2361  0.0518
 9290W        W18770  12.848   8.495   0.467  0.2101  0.0497 -0.0652
 9291W        W18771  11.626   9.111   7.863  0.0024 -0.2490 -0.2039
 9292W        W18772  15.414   9.243   0.843  0.0071  0.0511 -0.0272
 9293W        W18773  10.739  10.918   2.826  0.2133  0.0414 -0.2014
 9294W        W18774  13.473   8.013   0.714 -0.0073 -0.0560 -0.0714
 9295W        W18775   7.881   5.848   0.498  0.1943  0.1507 -0.2823
 9296W        W18776  14.928  14.370   6.959  0.2081  0.5773  0.1155
 9297W        W18777  11.461  12.906   1.913 -0.0607 -0.3340  0.0408
 9298W        W18778  11.573   9.542   7.593  0.1053  0.1559  0.3508
 9299W        W18779   9.879   4.816   1.174 -0.0425 -0.1736  0.0580
 9300W        W18780   9.201  10.055   0.044 -0.1173  0.0930 -0.1047
 9301W        W18781  11.660   9.151   2.314 -0.2184  0.1289  0.0487
 9302W        W18782   8.117  12.663   8.041  0.2273 -0.1058 -0.0808
 9303W        W18783   8.736   6.799   1.253  0.2143  0.0417  0.0351
 9304W        W18784  12.663   9.825   8.511  0.2123  0.2846  0.0735
 9305W        W18785   9.901  11.495   2.252 -0.0388  0.0627  0.1998
 9306W        W18786  11.585   3.140   7.928 -0.1428  0.2035 -0.3507
 9307W        W18787  13.006  13.875   1.496  0.1007 -0.0284  0.2770
 9308W        W18788  10.350  10.544   8.896  0.3288 -0.1279 -0.1346
 9309W        W18789   3.781  11.469   0.952 -0.3085 -0.0594 -0.1455
 9310W        W18790  11.067  14.962   9.035 -0.0459  0.0663 -0.2307
 9311W        W18791   9.886  12.342   8.921 -0.0509  0.0178  0.3396
 9312W        W18792  10.791   7.977   8.175 -0.2476  0.0915 -0.2399
 9313W        W18793   7.284  13.764   8.562  0.2144  0.0153 -0.0661
 9314W        W18794  14.691   2.414   0.756 -0.0644  0.1433  0.1851
 9315W        W18795  11.244  10.056   8.286  0.2849  0.0374  0.0633
 9316W        W18796  13.748  11.948   6.139  0.1759  0.0784  0.2869
 9317W        W18797  11.614   2.343   6.868 -0.0181 -0.1109 -0.1189
 9318W        W18798   8.451   3.865   0.589  0.1447  0.0498 -0.1828
 9319W        W18799  12.439   8.386   6.527  0.0866 -0.2211 -0.0498
 9320W        W18800  11.933   5.851   1.204  0.1837 -0.1810  0.1611
 9321W        W18801   0.180   0.904   2.399 -0.0529 -0.1157  0.1524
 9322W        W18802  12.007   8.547   6.968 -0.0025 -0.1110  0.1421
 9323W        W18803   9.538   0.288   0.397  0.3537 -0.1197 -0.4475
 9324W        W18804   9.555  10.785   8.698 -0.1616  0.1721  0.2664
 9325W        W18805   8.808  12.347   0.289  0.0677  0.0997 -0.0175
 9326W        W18806   0.911  10.211   0.395 -0.1544 -0.1474  0.1083
 9327W        W18807   2.206   7.260   8.536 -0.0202 -0.0125 -0.0371
 9328W        W18808  13.800  10.481   6.941  0.2322 -0.4137  0.0499
 9329W        W18809  12.314   9.851   9.071  0.0463  0.4412 -0.2033
 9330W        W18810   7.155  15.303   7.030 -0.0186  0.0439  0.0599
 9331W        W18811   9.707   9.704   6.950  0.1821 -0.1415  0.2552
 9332W        W18812   9.245  11.462   1.411 -0.0771  0.1027  0.2988
 9333W        W18813  12.356  13.146   8.480 -0.0672  0.1659 -0.4580
 9334W        W18814  11.703  11.256   2.763  0.0088  0.1988 -0.0065
 9335W        W18815  11.350   9.628   1.685  0.2007  0.1639  0.0231
 9336W        W18816   7.762   7.645   9.079  0.0286 -0.0392  0.1903
 9337W        W18817  11.868   7.829   8.437 -0.2745  0.0929  0.0226
 9338W        W18818   6.323  11.554   6.962  0.1898  0.3792 -0.1593
 9339W        W18819  12.576  11.572   1.305 -0.1166  0.0460  0.0931
 9340W        W18820  11.144   5.592   8.449 -0.1746  0.0338  0.0003
 9341W        W18821  11.974  14.961   1.447  0.1119 -0.1533 -0.0664
 9342W        W18822  12.439   0.770   0.460 -0.4208  0.0456  0.1464
 9343W        W18823   9.349  13.803   1.334  0.0046 -0.1339  0.1406
 9344W        W18824   0.136  11.094   2.063 -0.0123  0.0564  0.0668
 9345W        W18825   7.216   6.800   1.114  0.0174  0.2963 -0.1430
 9346W        W18826  14.529  11.728   8.482  0.2602  0.1683  0.2169
 9347W        W18827   2.552   8.652   8.503 -0.3748 -0.1962  0.0629
 9348W        W18828  13.669  11.401   1.763  0.2876  0.0485  0.0549
 9349W        W18829  11.304  14.826   2.071 -0.4907  0.2247  0.0014
 9350W        W18830   7.397  12.650   2.781 -0.1022  0.3316  0.0726
 9351W        W18831  13.348  11.798   8.568  0.1521  0.0766  0.0856
 9352W        W18832  14.440  13.819   8.383 -0.0902 -0.0296  0.1636
 9353W        W18833  11.861   7.947   1.843  0.0154 -0.0206  0.0888
 9354W        W18834   1.527   7.670   6.973 -0.0733 -0.2270 -0.0217
 9355W        W18835  14.196  13.907   2.283  0.0642 -0.2038 -0.0247
 9356W        W18836  10.760  11.363   8.556 -0.0567  0.0008  0.0280
 9357W        W18837  12.232  13.237   7.968  0.0413 -0.0938  0.1210
 9358W        W18838   0.562  12.814   1.760  0.1884 -0.1120  0.0253
 9359W        W18839  13.297  13.146   2.437  0.1970 -0.2141 -0.3090
 9360W        W18840  10.090  10.346   0.291  0.1572  0.0261 -0.0033
 9361W        W18841   7.856  14.546   2.541 -0.0219 -0.4930  0.0188
 9362W        W18842   4.384   3.758   1.670  0.1004 -0.2311 -0.3535
 9363W        W18843   6.599   9.871   9.017 -0.0937  0.2732 -0.1061
 9364W        W18844  14.269  14.382   1.872  0.1445 -0.4068 -0.1887
 9365W        W18845   7.271  15.068   1.367  0.3509 -0.1366  0.1438
 9366W        W18846   4.575  14.938   7.291 -0.0689 -0.0612  0.0922
 9367W        W18847  10.670  13.248   8.971 -0.1546  0.1048 -0.1085
 9368W        W18848   9.660  11.206   7.532 -0.1055  0.4916  0.2242
 9369W        W18849  14.314  12.902   0.229 -0.4711 -0.0606 -0.3261
 9370W        W18850  10.180   8.320   1.908 -0.2207  0.0189  0.0484
 9371W        W18851   9.903   2.960   7.042 -0.2511 -0.3640  0.1442
 9372W        W18852   7.303   9.264   0.633  0.0837  0.0148 -0.1523
 9373W        W18853  15.287  14.537   7.281  0.2220 -0.0405  0.2130
 9374W        W18854  13.944   0.991   9.025 -0.1403 -0.1425 -0.3017
 9375W        W18855  14.017   6.965   7.706  0.0925  0.2719  0.1321
 9376W        W18856  10.433  12.264   9.037  0.2478 -0.2842  0.0951
 9377W        W18857  13.257  12.253   1.241 -0.2417 -0.1084 -0.0091
 9378W        W18858   8.968   9.274   1.837  0.0771 -0.1402 -0.1776
 9379W        W18859   3.695  12.972   0.283 -0.2447  0.0812  0.0623
 9380W        W18860   9.231   9.268   8.818  0.0622  0.2262  0.1128
 9381W        W18861   3.112   6.150   0.356  0.2322  0.0299  0.0348
 9382W        W18862  13.573   5.409   1.673  0.0092  0.0493  0.1141
 9383W        W18863  10.300   5.887   3.036  0.3277  0.1022  0.4084
 9384W        W18864   7.804  10.065   8.184 -0.1227  0.1120  0.0274
 9385W        W18865   0.370   3.922   1.493 -0.0564 -0.1814  0.1221
 9386W        W18866  11.672   9.956   7.343 -0.0354  0.0225  0.0914
 9387W        W18867  12.936  14.972   8.094  0.1419  0.0385  0.1195
 9388W        W18868  12.060   8.522   2.156 -0.1100  0.3015  0.0881
 9389W        W18869  13.529   2.260   2.535  0.1730  0.1755  0.1389
 9390W        W18870  13.078  12.809   2.096  0.1224 -0.0204  0.0606
 9391W        W18871  10.587   7.876   1.928 -0.0727 -0.1634 -0.1236
 9392W        W18872  14.947   7.344   2.374 -0.2843  0.0318  0.1605
 9393W        W18873  14.782  12.626   0.181  0.2776 -0.0373 -0.0496
 9394W        W18874   2.997   0.143   8.635 -0.1097 -0.0454  0.3193
 9395W        W18875  12.881   9.782   1.173  0.1539  0.2199  0.2201
 9396W        W18876  12.458  13.892   8.870 -0.0743 -0.0795  0.1981
 9397W        W18877  12.144  10.402   8.963 -0.0861  0.3058  0.3116
 9398W        W18878  11.249   3.420   1.393 -0.1339  0.1337  0.4018
 9399W        W18879   9.096   8.527   1.577  0.0846  0.1732 -0.2731
 9400W        W18880   9.155  11.204   6.632  0.0416  0.2851  0.1735
 9401W        W18881  10.227   9.168   1.599 -0.5508  0.1514  0.3212
 9402W        W18882   9.750  13.412   7.496 -0.3011  0.1536 -0.1124
 9403W        W18883   7.951   8.513   6.450 -0.2207  0.1906 -0.0359
 9404W        W18884  15.403  11.476   8.678 -0.2956 -0.1602  0.3180
 9405W        W18885   7.486  13.786   8.116 -0.0420 -0.1249  0.0573
 9406W        W18886  12.180  13.268   0.739 -0.0503 -0.1280 -0.0185
 9407W        W18887   6.540  12.647   1.463  0.1511 -0.2116  0.1481
 9408W        W18888  11.032  15.385   2.189  0.2454  0.2836 -0.1675
 9409W        W18889  11.175   6.565   7.842  0.0775  0.1486 -0.2091
 9410W        W18890  11.677  14.391   8.493  0.0669  0.2092  0.0462
 9411W        W18891  11.529   2.696   7.248  0.2452  0.0233  0.0014
 9412W        W18892   5.569  10.964   1.018  0.0590 -0.0494 -0.2914
 9413W        W18893  14.689  14.673   8.056 -0.0494  0.0674  0.1403
 9414W        W18894   9.236   8.731   2.036  0.0145 -0.0471 -0.1221
 9415W        W18895  10.293   9.608   7.186 -0.0379 -0.0810 -0.3190
 9416W        W18896  10.851   3.849   2.445  0.0687 -0.1179 -0.1175
 9417W        W18897   3.237   7.577   8.274  0.0098  0.0504 -0.0633
 9418W        W18898  12.798  12.470   1.686 -0.0747 -0.0558 -0.4248
 9419W        W18899  14.686  11.613   0.347  0.1466 -0.0728  0.2182
 9420W        W18900   0.501   6.728   8.957  0.0365  0.1896 -0.1951
 9421W        W18901  11.529  10.086   2.044  0.1178 -0.2669  0.1488
 9422W        W18902   9.063  12.899   7.591 -0.3562 -0.1438 -0.2027
 9423W        W18903  10.607  12.359   8.607 -0.1553  0.0025  0.0113
 9424W        W18904  11.532   1.801   0.349 -0.0774  0.2026 -0.2008
 9425W        W18905  10.031   5.269   1.075  0.0251  0.2171  0.2036
 9426W        W18906  12.852  12.081   0.263  0.1517 -0.1946  0.0690
 9427W        W18907  10.103   7.092   1.345 -0.2268  0.1757  0.2358
 9428W        W18908   5.761   0.788   1.267  0.0264  0.0274 -0.0723
 9429W        W18909   6.789  14.590   9.041 -0.1603 -0.0648 -0.0848
 9430W        W18910  11.630   4.342   7.924 -0.1349 -0.0585 -0.0330
 9431W        W18911  11.464  12.396   2.085  0.2408 -0.3395 -0.2542
 9432W        W18912   7.474   5.645   1.141 -0.3423 -0.0277 -0.1277
 9433W        W18913  11.966   9.289   2.683 -0.1511 -0.0689  0.0103
 9434W        W18914  13.908  12.242   0.156  0.0708  0.1930  0.0108
 9435W        W18915   8.471  13.244   8.070 -0.2824 -0.0049 -0.1174
 9436W        W18916  13.383  10.754   7.708 -0.0992  0.1212 -0.2737
 9437W        W18917  12.927   9.698   0.690 -0.2740 -0.0710 -0.0866
 9438W        W18918   8.582  11.030   1.090  0.3180  0.0034  0.2333
 9439W        W18919  10.281  14.683   0.247  0.3061  0.2130 -0.2961
 9440W        W18920   4.052  11.083   8.933 -0.1203  0.0714 -0.0095
 9441W        W18921  12.142   7.599   8.016  0.1707  0.2648 -0.3058
 9442W        W18922   1.245   7.062   1.466 -0.0274 -0.2624  0.0736
 9443W        W18923  12.379  10.208   7.269 -0.1222  0.2889  0.0932
 9444W        W18924  13.769   9.898   7.514 -0.2621  0.0629  0.1062
 9445W        W18925  13.214   6.415   6.728 -0.1706  0.0592 -0.0920
 9446W        W18926  11.570  14.784   8.210 -0.2119  0.1787  0.1873
 9447W        W18927   9.978   9.020   8.028 -0.2742 -0.0687 -0.0152
 9448W        W18928  12.377  10.741   1.575  0.2727 -0.1166 -0.0117
 9449W        W18929   6.332  11.525   0.929 -0.0242 -0.2667 -0.0902
 9450W        W18930  11.379   1.646   7.415 -0.0982 -0.4477 -0.0181
 9451W        W18931  11.786  10.157   8.737  0.0819  0.0001  0.2073
 9452W        W18932  11.464  10.099   1.549  0.1444  0.2736  0.0981
 9453W        W18933  11.631  10.602   1.853  0.1095  0.3186  0.1014
 9454W        W18934  15.080   8.256   0.967  0.2803 -0.1579  0.1598
 9455W        W18935  12.426  14.322   7.387 -0.1281  0.1144 -0.0531
 9456W        W18936  15.138   1.050   6.665  0.1405  0.1507  0.2132
 9457W        W18937   7.103  11.164   7.520 -0.2122 -0.0727  0.3843
 9458W        W18938  11.328  11.469   1.910  0.1197 -0.1413 -0.0938
 9459W        W18939  10.213  13.266   8.054 -0.0367 -0.0203 -0.0272
 9460W        W18940  14.117  12.642   6.932  0.0031  0.2147  0.0602
 9461W        W18941   8.867   8.901   0.877 -0.4968 -0.0448 -0.1912
 9462W        W18942   8.057  14.560   8.188 -0.4691 -0.0509 -0.4020
 9463W        W18943   1.921  11.242   1.107 -0.1856 -0.0608 -0.0172
 9464W        W18944   7.441   9.311   1.956  0.1948 -0.1319 -0.1030
 9465W        W18945  12.823   0.251   1.596  0.0133  0.0550 -0.0121
 9466W        W18946   0.059  15.391   8.055 -0.1146  0.1760  0.1718
 9467W        W18947   4.819  11.209   8.658 -0.0141 -0.1580 -0.1280
 9468W        W18948  14.054   3.134   1.432  0.0702  0.0367 -0.0528
 9469W        W18949   2.388  14.393   7.969 -0.0715  0.0446 -0.1751
 9470W        W18950  15.307   7.506   6.490  0.1007 -0.1238  0.1722
 9471W        W18951   4.974   9.127   2.248 -0.2734 -0.2485 -0.1981
 9472W        W18952   8.340  12.007   8.485 -0.0015  0.1766  0.0287
 9473W        W18953  12.872  13.512   0.031 -0.0228  0.0529 -0.0797
 9474W        W18954  13.474   6.496   8.666 -0.1854 -0.4273  0.2038
 9475W        W18955   0.039  11.783   0.730 -0.0467 -0.3397 -0.1266
 9476W        W18956  14.790  13.489   8.162  0.2282 -0.3304  0.3394
 9477W        W18957   1.428  11.863   2.771 -0.0866 -0.2187 -0.0197
 9478W        W18958  10.811  10.610   2.303 -0.2179  0.5382  0.0507
 9479W        W18959   9.595   0.832   1.657 -0.0106 -0.1742 -0.2285
 9480W        W18960  13.267   0.935   8.460 -0.0403 -0.3555  0.0845
 9481W        W18961  12.062   9.651   0.893  0.0324  0.0620 -0.0563
 9482W        W18962   2.127  10.972   8.787  0.0635  0.1012  0.2274
 9483W        W18963  12.057   7.456   7.136  0.1391 -0.0736 -0.1860
 9484W        W18964   8.059   2.186   8.194  0.2755 -0.0221  0.0502
 9485W        W18965  10.125   9.836   0.284 -0.3136  0.0305 -0.0700
 9486W        W18966  12.387   0.670   7.760 -0.2263  0.1699 -0.0830
 9487W        W18967  13.770  13.931   6.829  0.0390 -0.4066 -0.1652
 9488W        W18968  10.674  14.049   8.226  0.1913 -0.0443  0.4139
 9489W        W18969   5.411   9.558   8.278  0.1255 -0.3386  0.1472
 9490W        W18970  14.111   8.076   7.112 -0.1969  0.3725 -0.0752
 9491W        W18971   3.335   6.043   1.928  0.0911  0.2400  0.3720
 9492W        W18972  13.690   6.324   8.255  0.0894 -0.0930  0.1156
 9493W        W18973  10.432   4.341   8.752 -0.3644  0.1951 -0.1453
 9494W        W18974  13.950   9.039   6.417  0.0136  0.2511 -0.2645
 9495W        W18975   9.853   9.856   8.540  0.3180  0.0908  0.1187
 9496W        W18976   9.705  12.562   1.255 -0.0666  0.1266  0.2842
 9497W        W18977  13.033   8.771   0.872  0.1705  0.0526 -0.0479
 9498W        W18978  14.050  11.726   8.430 -0.0612 -0.1002 -0.0213
 9499W        W18979   0.291  11.140   8.657  0.0647  0.2077  0.1172
 9500W        W18980  13.627   6.694   7.395 -0.1040 -0.3229  0.2495
 9501W        W18981  11.124  14.042   1.848 -0.2201 -0.5525  0.1573
 9502W        W18982  12.467   7.272   0.160  0.1061 -0.0335 -0.1283
 9503W        W18983   9.072  14.433   0.897 -0.0966  0.1011  0.2748
 9504W        W18984  10.372  12.792   8.938 -0.1548  0.0043  0.1650
 9505W        W18985   1.356   2.665   0.490 -0.0757 -0.1391 -0.0801
 9506W        W18986  13.339   9.821   7.237  0.0306 -0.0146 -0.3308
 9507W        W18987  14.700  11.951   1.282  0.1619  0.1657 -0.1358
 9508W        W18988  14.618  14.419   8.487  0.0376  0.1045 -0.1492
 9509W        W18989  11.207   6.596   8.320  0.0743 -0.0409 -0.1230
 9510W        W18990   2.085   7.369   7.573 -0.0777 -0.0666  0.0839
 9511W        W18991   4.164   7.070   1.325  0.1308  0.0891 -0.3239
 9512W        W18992   1.671   9.676   0.883 -0.0256  0.0134 -0.0123
 9513W        W18993  12.244  10.217   0.300  0.0193  0.2572  0.0555
 9514W        W18994  12.685   7.638   1.405 -0.5538  0.0849  0.0617
 9515W        W18995   1.045  12.834   0.471 -0.1252  0.0820  0.0369
 9516W        W18996   2.264   1.809   2.729 -0.2674 -0.2000  0.0451
 9517W        W18997  13.048  13.235   0.789  0.0954  0.1018 -0.0098
 9518W        W18998  14.845   2.810   7.296  0.3455  0.0801 -0.0937
 9519W        W18999  11.557  11.035   1.651  0.4849  0.0239  0.2036
 9520W        W19000   0.584   3.807   1.040  0.1743  0.0478  0.1515
 9521W        W19001  10.905  12.108   0.103 -0.3661 -0.2642 -0.1175
 9522W        W19002  15.401  10.058   8.037 -0.1828  0.0599  0.1967
 9523W        W19003  11.234  12.527   9.055  0.1155  0.1070 -0.0113
 9524W        W19004  12.963   7.079   1.427 -0.0272 -0.0937  0.1954
 9525W        W19005  12.169   9.743   8.618 -0.2466  0.1366  0.2860
 9526W        W19006  12.121   8.160   0.901  0.1421 -0.0442 -0.2287
 9527W        W19007  15.136   2.507   1.082  0.1080  0.1683  0.0611
 9528W        W19008  11.641  11.968   7.262  0.1401 -0.3081  0.0078
 9529W        W19009   2.614   7.055   0.245  0.2113 -0.1664  0.0231
 9530W        W19010  15.345  10.228   8.697  0.1993  0.1328 -0.2839
 9531W        W19011  10.138  10.325   1.047 -0.2770 -0.2535 -0.0728
 9532W        W19012  14.023  15.206   1.264 -0.0293 -0.2769 -0.2775
 9533W        W19013   2.295  11.878   8.166  0.0832 -0.1908 -0.3010
 9534W        W19014  14.275  11.749   7.997 -0.3507  0.1397 -0.0479
 9535W        W19015   7.153  14.620   8.697  0.0892 -0.3587 -0.3009
 9536W        W19016  13.843  15.036   0.316  0.0509 -0.2907 -0.1945
 9537W        W19017   2.071  10.977   2.016 -0.0893  0.0543  0.0356
 9538W        W19018   5.051  11.146   8.226 -0.2056  0.2323  0.1221
 9539W        W19019   0.565  13.459   1.297 -0.0870 -0.0158 -0.4868
 9540W        W19020  13.300   9.966   2.431 -0.0958  0.0396 -0.1397
 9541W        W19021  13.303  10.658   6.750 -0.1418 -0.0736 -0.0173
 9542W        W19022  13.372  14.961   2.133  0.0266 -0.1952 -0.0673
 9543W        W19023  15.367  10.031   0.201 -0.1267  0.2773 -0.1309
 9544W        W19024   0.292   8.052   0.589 -0.1911 -0.3174  0.0759
 9545W        W19025   4.577   9.776   8.226  0.3256  0.0819 -0.2182
 9546W        W19026  13.093   7.740   0.948  0.1189  0.0313  0.0732
 9547W        W19027   1.639  10.957   7.949 -0.0542  0.0074  0.4480
 9548W        W19028   1.197   1.133   8.027  0.1089 -0.0857 -0.1060
 9549W        W19029  12.274  10.454   1.177  0.2339 -0.0656  0.0455
 9550W        W19030  14.612  14.100   7.955 -0.2873 -0.1922 -0.0567
 9551W        W19031  13.797   8.188   2.059 -0.0064  0.0286 -0.0980
 9552W        W19032   0.382   3.370   7.703  0.3908 -0.0232  0.1128
 9553W        W19033   1.978  11.085   6.659  0.0720 -0.1003 -0.0239
 9554W        W19034   1.372   7.988   9.006 -0.0011 -0.0604 -0.3462
 9555W        W19035  11.736  11.492   8.574  0.0286  0.2859  0.1607
 9556W        W19036  10.224  12.476   1.194 -0.1201 -0.4106  0.3097
 9557W        W19037   3.885  10.102   7.865  0.0180  0.0641  0.1038
 9558W        W19038   4.747   7.801   1.923  0.0698 -0.0168 -0.0923
 9559W        W19039  13.139   1.682   7.193 -0.2081 -0.0137  0.1091
 9560W        W19040   0.853  12.255   0.842 -0.3178  0.1100  0.2139
 9561W        W19041   7.931  12.709   1.983 -0.1376 -0.0291  0.1229
 9562W        W19042  11.915  12.505   1.184 -0.0944 -0.1765  0.2809
 9563W        W19043  13.081   4.523   1.573  0.1785 -0.0748 -0.1147
 9564W        W19044   6.829  10.619   1.078  0.2666 -0.0567 -0.2692
 9565W        W19045  11.895  10.341   6.751 -0.1379  0.5838 -0.0211
 9566W        W19046  13.011   8.691   7.993  0.1146 -0.1769 -0.0321
 9567W        W19047  12.603   7.292   6.855 -0.0790 -0.5739  0.0084
 9568W        W19048  12.566   9.305   7.063  0.0897 -0.1189  0.0068
 9569W        W19049   1.700  11.383   0.068  0.0354  0.0864 -0.2771
 9570W        W19050  11.515  14.189   8.881 -0.1020 -0.2920  0.0456
 9571W        W19051  13.159  12.571   0.282 -0.1713 -0.0788  0.1936
 9572W        W19052   0.148  13.326   8.664 -0.2263 -0.0653  0.0428
 9573W        W19053  12.140  12.065   7.155 -0.0070 -0.1313 -0.0449
 9574W        W19054  13.182  12.982   7.959  0.0415  0.1625  0.0354
 9575W        W19055  14.495   6.960   2.637  0.1591 -0.1564 -0.0466
 9576W        W19056   1.569  13.965   0.759 -0.0734 -0.1082  0.3301
 9577W        W19057  10.086   7.828   2.021  0.1122 -0.0836  0.1228
 9578W        W19058  12.749  12.570   6.823 -0.0537 -0.1292 -0.1281
 9579W        W19059  11.015   4.694   0.987 -0.0628  0.0691 -0.1556
 9580W        W19060   1.995   3.676   0.456  0.0829 -0.1624  0.2083
 9581W        W19061   2.068   5.055   1.371 -0.1979 -0.1085 -0.0473
 9582W        W19062  13.673   0.529   2.347  0.1385 -0.2450 -0.2596
 9583W        W19063   0.778  12.351   0.327 -0.1405 -0.0505  0.1359
 9584W        W19064   2.709  15.161   7.396 -0.2226 -0.1232  0.2425
 9585W        W19065  12.182  12.419   7.719 -0.0433  0.1797 -0.0914
 9586W        W19066   4.282   9.693   0.706 -0.0232  0.0444 -0.4328
 9587W        W19067   4.379  14.528   2.433  0.1019  0.0876 -0.0442
 9588W        W19068   3.008  13.687   7.510  0.1808 -0.1107 -0.1249
 9589W        W19069   6.975   0.008   1.804  0.0974  0.0535  0.3067
 9590W        W19070  14.972   0.316   1.756  0.0030  0.0058 -0.3595
 9591W        W19071   6.575   5.197   2.139 -0.0540 -0.1898  0.0300
 9592W        W19072   6.434  10.823   1.473  0.1335  0.1041  0.1046
 9593W        W19073  10.408  14.238   7.147 -0.0750  0.2216  0.2220
 9594W        W19074  13.729  15.001   8.746 -0.0411  0.0034  0.0472
 9595W        W19075   2.817  12.848   0.433  0.4691 -0.0591  0.1101
 9596W        W19076   0.189   1.972   0.628  0.2082 -0.1393 -0.2750
 9597W        W19077   0.114  14.417   9.001 -0.0485 -0.0971 -0.0960
 9598W        W19078  14.969  10.340   7.992  0.2106  0.0035  0.0542
 9599W        W19079  14.580  10.822   7.283 -0.2939 -0.0655  0.1897
 9600W        W19080  15.158  12.864   7.972  0.1201 -0.0686 -0.1480
 9601W        W19081   9.038  10.694   1.729 -0.2017  0.0633 -0.3351
 9602W        W19082   1.937   0.215   7.611 -0.0428  0.1484 -0.3509
 9603W        W19083  13.526  13.320   7.740  0.3546  0.2580 -0.2644
 9604W        W19084  12.181  10.766   0.210  0.3293 -0.1631  0.1313
 9605W        W19085  12.167  15.361   8.448  0.0795  0.4127  0.2466
 9606W        W19086  12.343  11.589   8.995 -0.2567 -0.1026  0.1537
 9607W        W19087   0.809   3.901   7.621 -0.1420 -0.2296 -0.1853
 9608W        W19088   0.444  13.617   2.036 -0.1360  0.4249 -0.3476
 9609W        W19089   4.103  12.987   7.984 -0.0566  0.2028  0.2135
 9610W        W19090   1.255  13.268   1.367 -0.3385 -0.0746 -0.0350
 9611W        W19091   6.662  14.136   8.899  0.0304 -0.0667 -0.0782
 9612W        W19092  14.732  14.692   2.480 -0.0027  0.1080  0.1228
 9613W        W19093  10.525   8.619   0.321  0.2791  0.1509  0.0118
 9614W        W19094   0.973  13.185   7.864 -0.0936 -0.2993  0.0004
 9615W        W19095   4.512   1.680   7.926 -0.3136  0.4127  0.2921
 9616W        W19096   1.970  11.433   7.946  0.0824 -0.0320 -0.2571
 9617W        W19097  14.127   9.869   0.609 -0.0989  0.0097  0.3098
 9618W        W19098  14.867  11.345   8.460  0.3798 -0.0367  0.1473
 9619W        W19099   1.721   6.371   0.373 -0.2875  0.1086  0.2227
 9620W        W19100   0.335  12.020   1.085 -0.0048  0.0644  0.2374
 9621W        W19101   0.087  12.525   1.226  0.0600  0.0128 -0.0953
 9622W        W19102  13.741   3.675   8.638 -0.1183 -0.1055 -0.5989
 9623W        W19103   0.597  12.498   1.309 -0.1503 -0.1830  0.0923
 9624W        W19104   5.999  15.085   1.473  0.2443  0.3117 -0.2314
 9625W        W19105  14.598  15.105   1.281  0.0995  0.3827 -0.0705
 9626W        W19106   2.460   9.612   6.001 -0.1051  0.0414  0.1732
 9627W        W19107   2.999  14.258   0.186 -0.2899 -0.0898 -0.0430
 9628W        W19108   1.718   1.821   0.583 -0.0787 -0.0938 -0.1246
 9629W        W19109  14.111   5.954   7.815  0.3744  0.0233  0.3184
 9630W        W19110   4.141   6.482   1.989 -0.1211 -0.3324  0.1810
 9631W        W19111   2.941  13.615   0.728  0.1856 -0.1712 -0.0317
 9632W        W19112  13.524  11.158   6.842 -0.0311 -0.0318 -0.0477
 9633W        W19113  14.131   7.827   0.099 -0.0456  0.2385  0.2590
 9634W        W19114  13.221  11.151   0.873 -0.0427  0.2948  0.1305
 9635W        W19115   1.675  15.288   0.413  0.0955  0.1406 -0.0713
 9636W        W19116   5.824  14.910   8.796  0.0389  0.2068  0.0678
 9637W        W19117   4.388   1.906   1.207  0.0649 -0.0826  0.0979
 9638W        W19118   3.575   1.155   0.788 -0.0511 -0.0642 -0.0644
 9639W        W19119  10.055  12.047   7.740 -0.4577  0.1282  0.1262
 9640W        W19120   6.037   4.358   8.902 -0.0210  0.2313 -0.1527
 9641W        W19121   4.694   2.898   1.792  0.2672 -0.0077  0.2207
 9642W        W19122  13.468   0.766   0.546  0.0554  0.1556  0.0155
 9643W        W19123   5.239  12.694   6.997  0.2755 -0.2200  0.1786
 9644W        W19124  14.530  12.923   1.931  0.2158  0.0036 -0.3177
 9645W        W19125  14.320  13.071   8.062 -0.1066  0.1548  0.1782
 9646W        W19126  13.390  13.599   1.534  0.3863  0.0507 -0.0099
 9647W        W19127   2.008  13.712   6.583 -0.0011  0.0799  0.1484
 9648W        W19128   7.743  10.172   1.657 -0.0418 -0.1560 -0.0934
 9649W        W19129  14.927   9.451   1.040  0.4615  0.0307  0.0927
 9650W        W19130   4.145   2.696   6.455  0.1328 -0.0653  0.3431
 9651W        W19131  14.550   9.086   7.604  0.1030  0.0566  0.1154
 9652W        W19132  13.864   0.237   1.603  0.0054  0.1907  0.0356
 9653W        W19133   2.042   8.109   8.811 -0.0584 -0.0166  0.1230
 9654W        W19134   9.998   4.859   2.109 -0.3344 -0.1310 -0.1555
 9655W        W19135  14.738   0.094   0.579  0.0083  0.3249  0.1875
 9656W        W19136   2.701   0.785   1.213  0.2056  0.2957  0.0307
 9657W        W19137   2.429  13.137   7.953  0.0410  0.2856  0.3127
 9658W        W19138   2.985   1.730   7.482  0.0261  0.0358 -0.3290
 9659W        W19139  13.879  13.795   0.396 -0.2443 -0.1428 -0.0347
 9660W        W19140  15.394   3.279   0.907  0.2999  0.2662  0.2836
 9661W        W19141   2.954   2.944   8.247  0.0939 -0.2512 -0.0100
 9662W        W19142   2.424  13.104   8.477  0.3211 -0.0699 -0.1391
 9663W        W19143   7.776  14.776   0.549  0.0225 -0.2040  0.0141
 9664W        W19144   5.318   0.433   7.105 -0.2295 -0.0088  0.0331
 9665W        W19145   3.957   0.952   6.369 -0.3443  0.2351 -0.1757
 9666W        W19146   1.654   1.253   6.565 -0.1107 -0.4399  0.0789
 9667W        W19147   2.750  15.323   7.845  0.1505 -0.1635 -0.0855
 9668W        W19148  11.674  15.021   7.632 -0.0128  0.1110  0.1805
 9669W        W19149   0.287  14.487   7.608  0.0560 -0.0618  0.1401
 9670W        W19150   0.688   3.561   7.285  0.0875 -0.1478 -0.1577
 9671W        W19151  14.948   0.418   8.136 -0.1533 -0.2678  0.1935
 9672W        W19152   2.892  11.681   6.685 -0.0548  0.0101 -0.3432
 9673W        W19153  14.348  13.606   8.870 -0.3221 -0.1164 -0.3222
 9674W        W19154   1.106   9.429   2.075  0.0995 -0.0152 -0.0790
 9675W        W19155  10.476   1.841   8.876  0.1606  0.2192 -0.1034
 9676W        W19156  12.856   2.850   2.870  0.0465  0.1304 -0.1077
 9677W        W19157  14.160   0.658   1.432 -0.2342  0.1380  0.0820
 9678W        W19158   1.790   1.211   0.763 -0.0192 -0.1074  0.3816
 9679W        W19159   0.110  12.737   1.681  0.2073  0.1315  0.1602
 9680W        W19160  11.010  10.304   1.439 -0.0395 -0.3433  0.1915
 9681W        W19161  14.220  14.485   8.876  0.0345  0.2155  0.1598
 9682W        W19162   1.197   3.383   1.086  0.0173  0.1699 -0.1291
 9683W        W19163   6.304  14.427   6.987 -0.1095  0.0546  0.0544
 9684W        W19164  11.579  11.997   8.450  0.0781 -0.0968  0.0019
 9685W        W19165   0.621  12.358   6.353 -0.1027 -0.2597 -0.0171
 9686W        W19166  11.837  12.623   0.044  0.1238  0.3591  0.1380
 9687W        W19167  12.124   2.899   7.976 -0.3070 -0.1317  0.0242
 9688W        W19168   6.039  12.487   8.071  0.0667  0.1931  0.1771
 9689W        W19169   2.398   4.639   7.722 -0.0140 -0.0789 -0.1077
 9690W        W19170   1.694  14.169   1.317  0.1215 -0.2340  0.1406
 9691W        W19171   1.740   1.424   8.885 -0.1772 -0.0703  0.3266
 9692W        W19172  13.881   5.595   0.979  0.0072 -0.1017  0.1956
 9693W        W19173  14.155   9.583   7.547  0.2726  0.1116 -0.1287
 9694W        W19174  13.445  13.878   1.968  0.1648  0.2540  0.3874
 9695W        W19175   0.578  11.309   0.768 -0.0473  0.0533  0.3808
 9696W        W19176   9.137  14.379   7.693 -0.4026  0.0943 -0.0131
 9697W        W19177  11.043  14.049   9.004 -0.0002 -0.1515  0.1282
 9698W        W19178   1.745   0.768   1.107 -0.1998 -0.5462  0.0240
 9699W        W19179   1.118   0.757   7.705  0.1650 -0.1136  0.0869
 9700W        W19180   2.205  15.050   0.227  0.2421  0.0637 -0.0619
 9701W        W19181   3.347  14.138   0.575 -0.0317 -0.3878  0.0551
 9702W        W19182   2.435  12.015   0.172 -0.1278 -0.2432  0.0006
 9703W        W19183   5.665  11.863   8.478 -0.0904  0.2171  0.0501
 9704W        W19184   0.719  14.956   0.068  0.2209  0.1606 -0.0984
 9705W        W19185  11.003   2.347   1.365  0.1789  0.2183 -0.0883
 9706W        W19186   5.721   3.216   0.106  0.1068 -0.1807  0.1516
 9707W        W19187  11.374   0.752   0.337  0.1870  0.0797 -0.2066
 9708W        W19188   6.857  11.120   6.976  0.2276  0.1646 -0.1271
 9709W        W19189   1.000   2.595   8.279  0.0712 -0.0046 -0.0984
 9710W        W19190   6.739   2.177   8.216  0.0812  0.0737  0.0170
 9711W        W19191  15.392  10.801   1.015  0.1028  0.1345  0.1493
 9712W        W19192   3.168  13.762   0.253  0.1352 -0.1340 -0.1140
 9713W        W19193   1.958  10.978   8.312  0.1379 -0.0124  0.0410
 9714W        W19194   3.975  10.023   2.215 -0.3312  0.0022  0.1060
 9715W        W19195  10.517   4.071   8.183  0.2255  0.1288  0.1290
 9716W        W19196   2.225  14.417   1.325  0.2981 -0.0272  0.1455
 9717W        W19197   9.602   2.358   8.957  0.1027 -0.1934 -0.1570
 9718W        W19198   5.688  12.761   1.898  0.0540  0.0070 -0.1192
 9719W        W19199   4.905  15.397   2.009  0.3413  0.1557  0.0624
 9720W        W19200   0.909   0.563   8.285 -0.1761 -0.2635  0.1091
 9721W        W19201   5.328  13.949   0.058  0.2275  0.0664  0.4041
 9722W        W19202  11.837  11.565   1.939  0.0608 -0.4015 -0.1505
 9723W        W19203   6.939  11.070   0.167  0.0707  0.0828 -0.0742
 9724W        W19204  14.022  12.662   8.955  0.0468  0.3732 -0.1470
 9725W        W19205   9.520  13.993   0.012 -0.1542  0.0058  0.1408
 9726W        W19206   2.420  13.711   2.111 -0.1065 -0.1302 -0.3412
 9727W        W19207   3.809  14.604   6.308  0.4392  0.0604  0.2110
 9728W        W19208   8.615  10.014   6.938 -0.3123  0.0736  0.1589
 9729W        W19209   2.837   9.498   1.358  0.0499 -0.0268  0.2720
 9730W        W19210   0.871  14.614   8.454 -0.1306 -0.2974 -0.0074
 9731W        W19211   7.613  14.257   0.321 -0.0507  0.0846  0.3245
 9732W        W19212   8.174   6.624   0.861  0.2910  0.1676 -0.1954
 9733W        W19213   2.481   0.316   6.847  0.3706 -0.0095  0.0038
 9734W        W19214   3.243   0.574   8.537 -0.0217 -0.0587  0.2686
 9735W        W19215   1.116   1.968   0.647  0.1807  0.0273 -0.0129
 9736W        W19216   1.960  12.940   2.321 -0.0668  0.0304  0.0382
 9737W        W19217  14.069  13.212   8.951 -0.1447  0.1512  0.1653
 9738W        W19218   1.782  15.212   1.186  0.0880 -0.0807 -0.1071
 9739W        W19219  10.136   2.711   7.862  0.2157 -0.2053  0.0027
 9740W        W19220  10.283  12.995   6.799 -0.0558 -0.5069  0.2365
 9741W        W19221   3.559   0.285   8.808  0.3328  0.0433  0.0564
 9742W        W19222  10.932   0.297   1.857  0.0005 -0.1701 -0.0838
 9743W        W19223   3.795  14.646   7.912 -0.0534  0.1821 -0.1402
 9744W        W19224   9.266   2.508   1.852 -0.1676 -0.2850  0.4324
 9745W        W19225   6.956  14.402   0.876  0.3188 -0.2611  0.1247
 9746W        W19226  12.838   5.076   7.907 -0.1602  0.1223 -0.0549
 9747W        W19227   0.991  12.670   8.117  0.4930  0.0281 -0.1390
 9748W        W19228   6.071   3.883   8.784 -0.1922  0.2536 -0.3114
 9749W        W19229   4.736  10.547   0.936 -0.0020  0.1546 -0.1786
 9750W        W19230   8.442   0.091   1.365 -0.1560  0.2413  0.1055
 9751W        W19231   9.657   1.145   8.995 -0.0491  0.1155  0.0536
 9752W        W19232   3.992   5.457   0.008 -0.2811 -0.0814  0.3732
 9753W        W19233   0.269  14.954   8.786  0.0062  0.2720 -0.1806
 9754W        W19234   8.698  12.129   8.013  0.4486  0.0785  0.1747
 9755W        W19235   1.426   7.964   1.187 -0.0721  0.0437  0.0679
 9756W        W19236   0.963  13.246   2.185  0.2342  0.2609  0.0512
 9757W        W19237   0.877  12.916   8.577 -0.1040  0.1001  0.1543
 9758W        W19238   4.710   0.929   8.851  0.0652  0.2329  0.0020
 9759W        W19239   3.290   0.058   0.788 -0.1338  0.3014 -0.3808
 9760W        W19240   1.171  14.887   7.384 -0.3205  0.2904  0.0072
 9761W        W19241   2.900  10.507   0.762  0.0834  0.0686 -0.3090
 9762W        W19242  12.305   2.351   2.118  0.1908  0.1010 -0.1449
 9763W        W19243   4.469  13.012   7.275 -0.1159  0.2736 -0.5199
 9764W        W19244   5.842   0.346   8.030  0.2020 -0.2757  0.3348
 9765W        W19245  11.855  13.730   7.227  0.0120 -0.0507  0.0085
 9766W        W19246   5.945   6.022   1.675  0.3412  0.2883  0.0097
 9767W        W19247   4.432  12.288   1.938 -0.2580 -0.1173 -0.0907
 9768W        W19248   7.009  12.157   0.002  0.2360 -0.1530  0.3841
 9769W        W19249   0.347  14.194   0.751  0.1157 -0.2650  0.1288
 9770W        W19250   4.977  15.085   1.040 -0.0446  0.0311  0.0575
 9771W        W19251   4.796   3.492   8.429 -0.2134  0.1208  0.1676
 9772W        W19252   4.957   1.007   6.421 -0.0151  0.0253 -0.1145
 9773W        W19253   2.365  14.951   6.974  0.0727 -0.1499  0.0348
 9774W        W19254   2.185  12.919   7.598  0.1193 -0.1808 -0.2125
 9775W        W19255   5.191   3.585   1.853  0.0824  0.3356  0.1666
 9776W        W19256   1.158  14.680   8.869  0.2649 -0.1042 -0.1658
 9777W        W19257   1.926  13.383   2.093  0.2698  0.0697 -0.1651
 9778W        W19258   7.227   1.745   7.842 -0.1749 -0.3974  0.0534
 9779W        W19259  13.563  11.866   0.890  0.3255  0.0430  0.0533
 9780W        W19260   2.993   1.363   0.651 -0.0191  0.1050 -0.0458
 9781W        W19261  10.067   2.484   1.342  0.0927 -0.1406  0.1942
 9782W        W19262  15.049  12.059   7.619  0.1149  0.0309  0.1900
 9783W        W19263   1.092  11.475   2.275 -0.0219 -0.2294 -0.0664
 9784W        W19264   4.461   2.783   8.922 -0.3401 -0.0956  0.0502
 9785W        W19265   0.364   3.932   6.707  0.0727  0.0676  0.3022
 9786W        W19266   1.767  13.762   7.055  0.0045  0.0717  0.0588
 9787W        W19267   3.824   6.066   2.150  0.2752 -0.1517  0.0176
 9788W        W19268   6.356  14.019   2.008  0.0399 -0.0367  0.1118
 9789W        W19269  12.532   1.948   7.832 -0.4344  0.1794  0.0809
 9790W        W19270   2.248   9.800   7.679  0.0478  0.1056 -0.0161
 9791W        W19271   3.332   3.742   2.716  0.2368 -0.2692  0.1469
 9792W        W19272   3.547   2.551   7.162  0.0518  0.0758  0.0205
 9793W        W19273   2.248   9.947   6.799  0.0161 -0.1609 -0.1627
 9794W        W19274  15.002   0.051   7.832 -0.1394  0.3646  0.2426
 9795W        W19275   8.100  14.820   1.033  0.2206 -0.2450  0.1842
 9796W        W19276   1.790  13.816   7.614 -0.5422 -0.2882 -0.0335
 9797W        W19277  12.391   4.919   8.246  0.0141 -0.2757 -0.1348
 9798W        W19278   0.247   8.083   7.902  0.1609  0.0289  0.1103
 9799W        W19279   1.820   9.437   8.534 -0.1620  0.1959  0.0862
 9800W        W19280   7.428  11.210   7.140 -0.4079 -0.1094  0.0241
 9801W        W19281   2.787  12.340   7.535  0.0055 -0.0925  0.2471
 9802W        W19282   9.107  10.968   8.775  0.1242  0.0861 -0.4221
 9803W        W19283   5.281   3.100   9.047  0.2499  0.1120 -0.1654
 9804W        W19284   7.830  10.944   1.852  0.0546 -0.0604  0.1150
 9805W        W19285   7.852   9.571   7.994  0.3008 -0.1734 -0.0073
 9806W        W19286   3.445  12.533   1.461  0.1455 -0.2055 -0.0679
 9807W        W19287   5.026  14.322   7.837  0.0514 -0.0175 -0.2277
 9808W        W19288   4.279   4.205   2.517 -0.1480  0.3087 -0.0623
 9809W        W19289   2.833  12.883   2.216 -0.0491  0.0299 -0.0487
 9810W        W19290   1.035   2.438   0.841 -0.0545 -0.2091 -0.0956
 9811W        W19291   5.803   8.770   8.241  0.1787  0.1260  0.1306
 9812W        W19292   5.681   1.066   0.634  0.1023  0.0354  0.1652
 9813W        W19293   3.886  11.527   9.015 -0.0064 -0.1207  0.1393
 9814W        W19294   3.997  14.416   0.772 -0.5242 -0.1491 -0.0055
 9815W        W19295   2.534   5.816   7.939  0.0039 -0.0358 -0.1844
 9816W        W19296   9.957   3.247   2.051 -0.0702 -0.0634 -0.2287
 9817W        W19297   6.187   0.346   7.658 -0.2661 -0.0269  0.0582
 9818W        W19298   2.711  15.243   1.519 -0.0144 -0.2074  0.2820
 9819W        W19299   4.829   9.861   1.223  0.4028  0.0690 -0.2640
 9820W        W19300  10.357  11.082   1.082  0.0670  0.1402  0.0684
 9821W        W19301   2.351   0.982   8.651  0.0509 -0.1014 -0.0332
 9822W        W19302   4.785   1.399   1.826 -0.1964 -0.5269 -0.2523
 9823W        W19303   9.963  12.913   7.723  0.0187  0.2596 -0.1350
 9824W        W19304   2.709   7.267   8.451 -0.0078 -0.1427  0.2474
 9825W        W19305   4.218   2.325   0.974  0.0967 -0.1831  0.2136
 9826W        W19306   4.536  12.768   1.131  0.3462  0.0345 -0.2091
 9827W        W19307  13.402   2.347   1.706  0.2393 -0.0172 -0.0155
 9828W        W19308   7.708  12.354   8.104  0.3649  0.0927  0.2388
 9829W        W19309   4.106  10.157   8.796  0.3080  0.0726 -0.3392
 9830W        W19310   4.364   1.159   1.210 -0.1383 -0.3239  0.0835
 9831W        W19311   6.288   2.438   6.523 -0.1007  0.0657  0.1745
 9832W        W19312   6.094   3.805   6.307  0.1745  0.1196  0.0380
 9833W        W19313   8.786  12.530   1.936 -0.1287 -0.1221  0.0355
 9834W        W19314   4.439   5.569   0.116  0.0872 -0.0480 -0.0273
 9835W        W19315   5.096   6.142   1.994 -0.0466  0.0931  0.0666
 9836W        W19316  11.053   1.440   7.001  0.2574  0.0904 -0.0422
 9837W        W19317  12.868  14.077   0.166  0.2486  0.3267  0.1668
 9838W        W19318   8.362  11.823   6.859 -0.0713  0.1245 -0.1595
 9839W        W19319   9.493  11.939   0.625  0.1006 -0.0993  0.0987
 9840W        W19320   4.712   4.955   7.024  0.1283 -0.3276 -0.3810
 9841W        W19321   8.801  10.770   0.669 -0.1402 -0.1456 -0.0244
 9842W        W19322   0.331   0.556   1.140  0.3409 -0.0378 -0.0125
 9843W        W19323   6.471   1.311   7.442 -0.0616  0.0186 -0.0127
 9844W        W19324   9.961   1.100   1.091  0.0757  0.0560 -0.1199
 9845W        W19325   8.276   1.093   0.195 -0.1541 -0.3457 -0.3173
 9846W        W19326   6.089  10.902   1.853 -0.0346 -0.1381 -0.0918
 9847W        W19327  10.705   3.577   9.005  0.1602  0.1868  0.3117
 9848W        W19328   5.469  15.044   0.756 -0.0182 -0.2667  0.0291
 9849W        W19329  13.425  10.289   2.757 -0.1978 -0.2836 -0.4333
 9850W        W19330   6.655  14.499   1.276 -0.1275  0.0407 -0.2126
 9851W        W19331  12.829   1.676   1.617  0.1421 -0.0085 -0.1307
 9852W        W19332   0.203   0.247   0.715  0.0427 -0.2939  0.0104
 9853W        W19333  11.841   9.676   2.394 -0.2772  0.2503  0.1766
 9854W        W19334  10.612   3.429   2.232 -0.2243 -0.1275 -0.2301
 9855W        W19335   7.983  13.193   1.678  0.0398 -0.0783  0.2246
 9856W        W19336   7.563  13.472   7.776 -0.0819  0.2209 -0.0910
 9857W        W19337  10.098  14.098   7.601  0.4317 -0.0650 -0.0780
 9858W        W19338  10.624  13.764   9.019  0.3107  0.1521  0.0889
 9859W        W19339   4.611  12.768   8.655 -0.0414 -0.0667 -0.0286
 9860W        W19340   8.547  14.371   7.832  0.1465 -0.0341 -0.0037
 9861W        W19341   7.171  14.768   2.165 -0.2399  0.1686  0.1523
 9862W        W19342   0.104  13.563   0.039  0.1859 -0.2752  0.2538
 9863W        W19343   5.030  14.179   2.423 -0.2171 -0.0846  0.1585
 9864W        W19344   9.194   4.107   2.530  0.0294  0.1829  0.0699
 9865W        W19345   5.689  11.455   1.266 -0.0907  0.0461 -0.1421
 9866W        W19346  10.525  11.781   0.162  0.1617 -0.3161 -0.0580
 9867W        W19347   6.156  11.272   1.534  0.1177 -0.0231 -0.2266
 9868W        W19348   8.096   1.841   8.537  0.0739 -0.0226 -0.1127
 9869W        W19349   7.734   1.920   7.909  0.0113  0.0700 -0.5001
 9870W        W19350   8.063  11.666   0.205 -0.2284  0.0737  0.3157
 9871W        W19351   9.517  10.997   0.099  0.1251  0.0039  0.0031
 9872W        W19352   7.635  14.265   8.247  0.5871 -0.0509 -0.0432
 9873W        W19353  10.594   1.122   0.203  0.0942 -0.2706 -0.2699
 9874W        W19354   9.036   4.360   8.730  0.0337 -0.0082 -0.1450
 9875W        W19355  11.650  12.796   2.511  0.1594  0.0816  0.1134
 9876W        W19356   8.236  13.880   8.752  0.1073  0.3538  0.4132
 9877W        W19357   9.766   0.422   2.707  0.0560 -0.0304  0.2452
 9878W        W19358   6.098   7.569   1.457 -0.1737 -0.3663  0.0564
 9879W        W19359  10.676  14.989   7.325  0.1592  0.3408  0.1754
 9880W        W19360  11.471   1.142   7.150 -0.0694 -0.0344  0.2005
 9881W        W19361  10.353  10.752   2.553 -0.2010 -0.0166 -0.2649
 9882W        W19362   0.965   3.858   0.212 -0.0154 -0.0810  0.1445
 9883W        W19363   7.059   3.820   1.938 -0.0523  0.1518 -0.2002
 9884W        W19364  14.339  12.452   0.535  0.3339 -0.0041  0.2721
 9885W        W19365   5.440  14.549   8.885 -0.0892 -0.0440  0.2659
 9886W        W19366   9.109   1.422   2.363  0.1403 -0.1218 -0.0360
 9887W        W19367  12.171   3.456   0.365 -0.1704 -0.2402 -0.2074
 9888W        W19368   4.145   9.673   7.921 -0.0599  0.0693 -0.1407
 9889W        W19369  13.639   3.292   1.842  0.0734 -0.1209  0.0142
 9890W        W19370  12.596  10.695   8.083  0.3484  0.3419 -0.1657
 9891W        W19371  13.484   0.290   8.195 -0.2428 -0.2519  0.1340
 9892W        W19372   4.593   9.330   8.493 -0.3369  0.2678  0.0921
 9893W        W19373   9.021  13.794   7.492  0.0251 -0.0248  0.0820
 9894W        W19374   8.503  14.139   2.871 -0.3811 -0.0732 -0.0776
 9895W        W19375   9.337  12.196   8.640 -0.4697  0.1747  0.0242
 9896W        W19376  13.542   2.669   7.703  0.0995  0.2733 -0.2048
 9897W        W19377  11.802   9.541   1.313 -0.0352  0.0031  0.1542
 9898W        W19378   9.115   1.390   1.382 -0.2673  0.2935  0.0442
 9899W        W19379   8.606  13.832   7.908 -0.2598  0.2250  0.1310
 9900W        W19380  10.108   1.202   6.688  0.0130  0.1904  0.1496
 9901W        W19381  11.972  15.015   9.031 -0.0273 -0.1584 -0.2597
 9902W        W19382  10.128  15.156   0.323  0.0146 -0.2480 -0.0146
 9903W        W19383   7.404  15.113   1.881  0.0191  0.0762 -0.0737
 9904W        W19384   4.622  14.588   7.712  0.0918 -0.1380 -0.0841
 9905W        W19385   7.635  13.228   0.770  0.0488 -0.0005  0.0045
 9906W        W19386  13.437  12.061   0.443 -0.0691  0.0183 -0.2115
 9907W        W19387  10.085   0.360   1.441  0.2015 -0.0241 -0.0881
 9908W        W19388   8.146  13.096   2.212  0.2874  0.0999 -0.1643
 9909W        W19389   6.999  11.468   2.362 -0.4279 -0.0096  0.0282
 9910W        W19390   8.981  15.124   1.947  0.0342  0.1016  0.0821
 9911W        W19391   8.663  14.177   8.655 -0.1487  0.1346  0.2769
 9912W        W19392   9.383   1.753   1.191  0.0248  0.0714  0.1451
 9913W        W19393   6.392   2.592   8.284 -0.3315 -0.1661  0.0157
 9914W        W19394  12.106   0.277   0.833 -0.0666 -0.0597  0.1336
 9915W        W19395   3.757  11.201   1.561 -0.0767  0.2620  0.0256
 9916W        W19396   9.401  12.456   7.240  0.0505  0.1509  0.0080
 9917W        W19397   7.597   0.113   6.812 -0.2081  0.1932 -0.0230
 9918W        W19398  11.938  13.244   2.474  0.2011  0.2244  0.3430
 9919W        W19399  10.611   1.629   1.103  0.2769  0.2923 -0.1574
 9920W        W19400  14.496   3.745   7.099  0.2600 -0.0700  0.1705
 9921W        W19401  13.079   8.764   1.740 -0.1880 -0.1486 -0.0794
 9922W        W19402  13.971  10.694   2.024  0.1308 -0.1588  0.2720
 9923W        W19403   1.550  15.030   8.917  0.2596  0.1504  0.2437
 9924W        W19404   2.318   9.109   2.091 -0.0313 -0.0293  0.0372
 9925W        W19405   6.237  12.008   8.597  0.1814  0.3317 -0.1787
 9926W        W19406   1.789   2.697   0.800  0.1462 -0.0070 -0.0417
 9927W        W19407  11.273  12.227   8.144 -0.0018 -0.0181  0.0587
 9928W        W19408  11.705   0.738   8.440 -0.2164 -0.1109 -0.0046
 9929W        W19409  10.124  12.566   0.209 -0.0991 -0.2171 -0.2421
 9930W        W19410   6.791  14.121   1.603  0.2312 -0.0270 -0.2623
 9931W        W19411  11.012   1.190   1.565  0.1298  0.1917  0.0799
 9932W        W19412  11.976  15.139   8.034  0.2120 -0.1098  0.1275
 9933W        W19413   8.610  14.913   6.597 -0.0010 -0.1543 -0.1870
 9934W        W19414  14.072  10.651   1.072 -0.1170  0.2356  0.3947
 9935W        W19415   3.163  14.608   1.441  0.0893  0.0328  0.0568
 9936W        W19416   2.411   1.710   8.345  0.0745 -0.0243 -0.3520
 9937W        W19417   2.186   8.319   7.839  0.2804  0.1282 -0.1933
 9938W        W19418  13.325  12.344   8.062  0.0986 -0.1127  0.0061
 9939W        W19419  11.557   0.693   7.983  0.1438  0.1432 -0.1201
 9940W        W19420   5.316  12.437   1.796 -0.0249  0.0424  0.0114
 9941W        W19421   9.720  11.401   1.782  0.2456  0.2237 -0.2611
 9942W        W19422   4.869  14.444   7.191 -0.0270 -0.1196 -0.2368
 9943W        W19423  15.356  12.089   8.973  0.2658 -0.1932  0.1078
 9944W        W19424  10.180   1.608   6.978 -0.4346  0.1123 -0.1249
 9945W        W19425  11.123   2.718   2.238  0.2776  0.0141  0.3792
 9946W        W19426  10.436  11.045   8.775  0.2235  0.0933  0.1514
 9947W        W19427   8.288  13.960   7.506 -0.2409  0.0461  0.0536
 9948W        W19428  13.543   4.754   0.857  0.2813  0.1715 -0.1911
 9949W        W19429  11.084  14.309   1.199  0.0313 -0.2093 -0.1189
 9950W        W19430  15.250  12.386   0.783  0.1206  0.3062  0.2528
 9951W        W19431  11.569  12.841   1.279 -0.0844  0.2808 -0.3500
 9952W        W19432   0.570  14.578   8.837 -0.1493 -0.0940 -0.3503
 9953W        W19433   8.371   8.649   0.987 -0.0431 -0.1243 -0.3256
 9954W        W19434   8.813   2.208   2.685 -0.0140 -0.1061  0.0799
 9955W        W19435  13.491  12.722   7.673  0.3409  0.1885  0.0159
 9956W        W19436   9.148   0.659   2.359 -0.0090  0.0574 -0.1134
 9957W        W19437   9.232  11.201   1.937  0.1803 -0.1124  0.0562
 9958W        W19438  12.883  13.073   2.827  0.1944 -0.1652 -0.2371
 9959W        W19439  11.359   3.100   0.761 -0.0332 -0.0187  0.1217
 9960W        W19440  11.484  14.976   8.700  0.0283 -0.1676 -0.0347
 9961W        W19441   1.493   8.099   7.283  0.1914 -0.3010  0.2426
 9962W        W19442   7.306  10.598   1.132 -0.4062 -0.3870  0.1311
 9963W        W19443   8.317  12.215   1.524  0.3309  0.0344  0.0029
 9964W        W19444   8.489   2.248   2.233 -0.1486  0.3410  0.2023
 9965W        W19445  14.318  12.136   7.586 -0.0685  0.2987 -0.3413
 9966W        W19446  11.543  14.563   7.681  0.3807 -0.0005 -0.0846
 9967W        W19447  13.617   9.353   0.422 -0.2495  0.4064 -0.0346
 9968W        W19448   9.541   1.843   8.804  0.2306 -0.0698  0.1727
 9969W        W19449   9.670  14.386   8.913 -0.2976  0.0723  0.1548
 9970W        W19450   4.057   2.443   0.148 -0.0725  0.1854 -0.0548
 9971W        W19451   9.550  13.874   7.555 -0.0055  0.0064 -0.1294
 9972W        W19452   8.547  15.130   8.940 -0.0011  0.4504 -0.0236
 9973W        W19453  14.754  14.597   0.659  0.1753  0.0035  0.0233
 9974W        W19454  11.460   8.102   1.573 -0.3435 -0.1235 -0.2236
 9975W        W19455   7.723   9.063   0.807 -0.0541  0.2582 -0.0417
 9976W        W19456  13.641  11.978   1.970 -0.0470 -0.0015  0.1226
 9977W        W19457  12.032  14.823   0.942 -0.0335  0.2562  0.0963
 9978W        W19458  14.104  10.383   0.511  0.1245  0.2249 -0.0990
 9979W        W19459   6.940   1.254   0.051 -0.0248  0.2091 -0.0161
 9980W        W19460  11.251  12.710   7.910 -0.0907 -0.3517 -0.1821
 9981W        W19461  12.995  12.607   8.360 -0.1089  0.0792  0.0739
 9982W        W19462  14.394   9.883   8.762  0.3241  0.1202 -0.2548
 9983W        W19463  12.989   0.479   1.177  0.1613 -0.1742 -0.2715
 9984W        W19464  10.245   2.253   8.664  0.3098 -0.0160 -0.0448
 9985W        W19465  12.155  13.908   8.203 -0.4044 -0.0750  0.2631
 9986W        W19466  12.579   2.629   2.482  0.2448 -0.3545 -0.1530
 9987W        W19467  13.741   1.864   0.318 -0.1818  0.2919  0.2647
 9988W        W19468   0.496  13.093   7.284  0.1730 -0.0675  0.1846
 9989W        W19469  12.342  12.408   6.641  0.1705 -0.0450  0.1597
 9990W        W19470   1.683  13.844   8.290  0.1325 -0.0509 -0.2307
 9991W        W19471  14.450  12.001   1.951  0.0622 -0.1275  0.2014
 9992W        W19472   9.631  10.739   0.908 -0.1314 -0.0112  0.2458
 9993W        W19473   7.525  13.001   6.866  0.1074  0.0925 -0.0763
 9994W        W19474  10.244  14.505   7.896  0.0707  0.3630 -0.0379
 9995W        W19475   0.824  11.774   0.951  0.1769  0.3444 -0.1093
 9996W        W19476   8.732  10.567   8.480 -0.1058 -0.3069  0.0686
 9997W        W19477   1.291  11.960   8.455 -0.0840 -0.1593  0.2881
 9998W        W19478  10.789  12.539   1.403  0.1021  0.1329 -0.0962
 9999W        W19479   0.808  15.327   0.428 -0.0234 -0.0540 -0.0918
10000W        W19480  14.337  13.671   7.907  0.0182  0.0856  0.1534
10001W        W19481  13.059  13.433   7.964  0.1072 -0.3208 -0.2493
10002W        W19482   1.254   8.823   0.769  0.2856  0.1125  0.0898
10003W        W19483   9.463   3.648   8.679 -0.1592  0.2023  0.1241
10004W        W19484  10.580   8.773   1.875 -0.0934 -0.1017 -0.0951
10005W        W19485  13.486  11.101   0.005  0.1150  0.0436 -0.1487
10006W        W19486  13.927  13.615   7.497 -0.2321 -0.0888 -0.1407
10007W        W19487  12.715   0.323   2.606  0.2130  0.3021  0.0473
10008W        W19488   7.673  14.617   8.620 -0.0429  0.0021  0.2418
10009W        W19489   3.359   2.488   7.696 -0.0696 -0.0710 -0.2523
10010W        W19490   1.754  14.403   1.721 -0.1707 -0.0061  0.1195
10011W        W19491  13.620   3.878   7.361 -0.1186 -0.0693  0.0918
10012W        W19492   0.475   5.599   0.559  0.2176 -0.1214  0.0513
10013W        W19493   8.479  15.176   0.956  0.0347  0.2219  0.1950
10014W        W19494   0.476   0.650   0.592 -0.1743  0.2841 -0.1093
10015W        W19495   2.699  13.672   1.668  0.1064 -0.1397 -0.0663
10016W        W19496   7.439   0.591   0.504 -0.1322  0.0776 -0.3500
10017W        W19497  12.640  13.815   7.457  0.2206 -0.0545 -0.0556
10018W        W19498  13.928  15.398   9.038 -0.2408 -0.1563  0.1431
10019W        W19499  12.017   1.463   8.061 -0.1130  0.0481 -0.1136
10020W        W19500   9.756   3.959   2.748 -0.1065 -0.0330  0.0221
10021W        W19501   0.440  11.919   8.224 -0.0909  0.0038  0.2152
10022W        W19502  12.853  11.752   8.783  0.2221 -0.0128  0.2656
10023W        W19503   3.276  13.114   2.095 -0.0025  0.0975  0.0358
10024W        W19504   8.110  10.570   8.520  0.1680 -0.0827 -0.1760
10025W        W19505   8.421   1.857   7.906 -0.1049  0.3043 -0.2265
10026W        W19506  14.332  12.693   7.636  0.0680  0.1504 -0.1319
10027W        W19507   9.557  10.984   2.204 -0.1398  0.3719 -0.0998
10028W        W19508  12.309  15.431   8.979 -0.0491  0.2163 -0.2961
10029W        W19509  10.129   0.806   8.391 -0.1485 -0.2065 -0.0659
10030W        W19510   7.932  13.586   0.448 -0.1930 -0.4004 -0.0641
10031W        W19511  12.162   0.051   7.712 -0.1460 -0.2107  0.0798
10032W        W19512  14.285  13.981   0.149  0.0154 -0.0318 -0.0306
10033W        W19513  12.994  13.697   0.507  0.1357 -0.1906  0.2089
10034W        W19514  15.176   3.756   0.648  0.1731 -0.0758 -0.0201
10035W        W19515  11.290   1.189   3.081  0.1364  0.1089 -0.3264
10036W        W19516  15.010   2.622   2.064 -0.1875 -0.0399 -0.0953
10037W        W19517   1.801  14.910   0.741  0.3125 -0.0082  0.3991
10038W        W19518  11.139  12.093   7.136 -0.2621  0.1904 -0.3423
10039W        W19519   8.127   4.281   1.453  0.0044  0.3615 -0.0009
10040W        W19520   7.468   1.429   1.759 -0.0399  0.4041  0.1922
10041W        W19521  10.633   0.035   6.921 -0.1372 -0.0486 -0.0352
10042W        W19522  12.273  12.735   1.536  0.1901  0.0884  0.2439
10043W        W19523   0.088  14.268   1.820 -0.1700  0.1791 -0.0133
10044W        W19524   2.686  12.934   7.401 -0.2605 -0.2485  0.0544
10045W        W19525   0.498  15.328   2.673  0.1406 -0.2223  0.0401
10046W        W19526  13.331   4.109   0.379  0.0358  0.2022  0.0948
10047W        W19527  14.681  12.218   8.487 -0.0478  0.3596  0.1123
10048W        W19528   1.367   1.859   8.284  0.0180 -0.0725  0.3072
10049W        W19529   0.022   4.641   7.223  0.2551 -0.1956  0.1011
10050W        W19530   0.528  13.189   0.850  0.1624 -0.0862  0.0461
10051W        W19531  14.942   4.593   0.457 -0.0883  0.1307  0.3208
10052W        W19532  11.361   5.870   0.501 -0.1478 -0.0636  0.2668
10053W        W19533  10.137  13.909   1.642  0.1985  0.0207  0.1751
10054W        W19534   1.772  12.901   1.240 -0.2721 -0.0079 -0.1715
10055W        W19535  10.256  15.419   2.764 -0.0123 -0.1129  0.1679
10056W        W19536   8.747   0.159   8.199 -0.1181  0.2416  0.1884
10057W        W19537   2.084  12.108   1.092  0.0654  0.0181  0.3116
10058W        W19538   8.118  14.322   8.678 -0.0446  0.1988 -0.0208
10059W        W19539  11.032  13.673   8.663 -0.0244 -0.0457  0.0482
10060W        W19540  14.094   8.761   0.810  0.3129 -0.0850 -0.1008
10061W        W19541  13.410  15.293   8.954  0.0426  0.0319  0.2972
10062W        W19542   0.055  13.128   8.194 -0.2536  0.0643 -0.1769
10063W        W19543   4.310  11.478   0.949  0.1190  0.0651  0.1744
10064W        W19544   0.757   1.312   2.569  0.2039 -0.0002 -0.0213
10065W        W19545   8.333   0.462   0.989  0.2594  0.2635  0.1275
10066W        W19546  13.877   8.889   0.386 -0.2605 -0.0439 -0.0935
10067W        W19547   9.057  12.561   8.488  0.0152 -0.3144  0.1499
10068W        W19548   0.173  15.267   1.460 -0.1694  0.2242  0.1064
10069W        W19549  11.854  11.292   7.162  0.0144  0.2647  0.1777
10070W        W19550   6.212   9.958   1.739  0.0719  0.0349  0.0070
10071W        W19551  12.969   3.990   7.932 -0.1779 -0.1890 -0.0007
10072W        W19552  11.548  14.688   0.013 -0.1094 -0.0780 -0.0106
10073W        W19553   1.282  12.778   1.215 -0.0771  0.4058 -0.3765
10074W        W19554   9.854  12.849   8.819 -0.1844  0.0788 -0.0436
10075W        W19555   9.448  12.042   9.086  0.2032 -0.0558 -0.1624
10076W        W19556  12.490   3.101   2.592  0.1789  0.0396 -0.0579
10077W        W19557  12.184  13.591   1.092 -0.0201 -0.1871  0.0796
10078W        W19558   2.108   8.248   2.498  0.0353 -0.1889 -0.1698
10079W        W19559  14.302   2.507   2.039  0.0814  0.0765  0.1904
10080W        W19560   1.175   1.001   2.708 -0.3656 -0.1385  0.2337
10081W        W19561  13.612  13.110   8.713  0.1113 -0.0984  0.0752
10082W        W19562   0.772   6.983   2.231 -0.1338 -0.2836 -0.0602
10083W        W19563   1.293   0.172   8.290 -0.0266  0.0396 -0.3789
10084W        W19564   4.436  14.550   1.917  0.2486  0.2724  0.1922
10085W        W19565   9.031  11.847   6.558  0.0012  0.0789 -0.2226
10086W        W19566   9.245  12.328   1.358  0.0302 -0.1248 -0.0651
10087W        W19567  12.839   1.375   7.658 -0.2289 -0.1164 -0.0647
10088W        W19568  13.686   5.149   0.579  0.0130  0.0190  0.1476
10089W        W19569  13.858  10.132   8.874 -0.0241  0.4832 -0.0301
10090W        W19570   0.349  12.620   2.147  0.1346  0.3428 -0.0333
10091W        W19571  14.769  10.631   1.692  0.2703  0.1226  0.0271
10092W        W19572   0.761   1.194   7.681  0.0458  0.1823  0.0474
10093W        W19573  10.029  10.530   8.073 -0.0383  0.0635 -0.0294
10094W        W19574   8.421  11.560   8.249 -0.1374 -0.0936 -0.1900
10095W        W19575  14.156  11.120   1.061  0.1455 -0.2091 -0.3764
10096W        W19576   3.915  12.173   7.649 -0.0896  0.2926  0.3077
10097W        W19577   4.058   0.107   1.948  0.0441  0.0461 -0.2827
10098W        W19578   9.955  14.389   6.798  0.1923  0.0462 -0.1377
10099W        W19579  13.843  14.243   2.063 -0.1817  0.0187 -0.0183
10100W        W19580   2.180   1.889   0.329  0.0744 -0.3476 -0.4020
10101W        W19581  10.523  15.384   8.620  0.1611  0.0115 -0.2307
10102W        W19582   9.443   0.762   0.137  0.0666  0.1852 -0.0648
10103W        W19583   2.108   0.064   7.061 -0.1571  0.0222  0.1636
10104W        W19584  12.469  10.671   8.637 -0.1082 -0.1181 -0.1168
10105W        W19585  11.930  10.653   8.615  0.1061  0.0266  0.0352
10106W        W19586  13.704   0.121   8.626  0.3909  0.0815  0.0569
10107W        W19587   0.432   4.795   0.329 -0.0000  0.1676 -0.0927
10108W        W19588  11.681  11.322   7.966  0.0876  0.2432 -0.0730
10109W        W19589  12.027  11.997   0.124  0.2434 -0.0647  0.0792
10110W        W19590  14.224  14.954   9.085  0.2190 -0.0621 -0.0750
10111W        W19591  11.439  15.229   0.133 -0.3813  0.0729 -0.2229
10112W        W19592  11.541  10.767   7.191 -0.1623  0.0286  0.0558
10113W        W19593   1.333   3.498   0.233 -0.1863 -0.0904  0.0717
10114W        W19594  14.165   1.441   0.970 -0.0792  0.1032 -0.0158
10115W        W19595   8.680  11.440   6.685 -0.0264 -0.0181  0.2763
10116W        W19596  11.663  13.508   1.516 -0.2437  0.0532  0.4588
10117W        W19597  14.108   8.391   8.903  0.0606 -0.2609  0.2715
10118W        W19598  11.151   0.941   7.829 -0.0050 -0.0587 -0.0316
10119W        W19599  12.452  11.801   1.788  0.0971  0.0998  0.0659
10120W        W19600  13.750  13.624   8.985  0.0270 -0.1402 -0.3566
10121W        W19601  12.173   1.070   0.187 -0.0277 -0.2690  0.0379
10122W        W19602  14.409  15.432   0.153 -0.1416 -0.0017 -0.0869
10123W        W19603  11.752  12.584   7.916 -0.0765 -0.2932  0.1535
10124W        W19604   9.504   0.154   2.362  0.1507 -0.0462 -0.0022
10125W        W19605  14.158   2.842   8.271  0.1122  0.2068 -0.1782
10126W        W19606  12.570  13.567   8.103  0.1947 -0.2345  0.0240
10127W        W19607  10.180  14.494   2.463  0.1658  0.1976  0.2686
10128W        W19608  12.057  12.885   7.596  0.2387  0.1314  0.0940
10129W        W19609  11.163   9.354   7.802  0.1143  0.1478 -0.4135
10130W        W19610  15.287   1.657   2.267 -0.0165 -0.0774  0.0543
10131W        W19611   2.953  13.221   8.472 -0.4847  0.3568 -0.0022
10132W        W19612  14.244  14.388   8.136 -0.5036 -0.1319  0.1336
10133W        W19613   0.273  13.634   8.278 -0.2266  0.1268 -0.1922
10134W        W19614  11.405   1.826   2.343 -0.2225  0.1444 -0.1254
10135W        W19615   2.227   1.486   8.981 -0.1879  0.1116  0.1839
10136W        W19616  11.604  11.619   1.513  0.1723  0.1996  0.3360
10137W        W19617   8.155   8.865   7.728  0.1266  0.0492 -0.2864
10138W        W19618   0.269  12.083   2.124  0.0136  0.1845 -0.2161
10139W        W19619  11.981   7.358   1.484 -0.1127 -0.2370  0.1186
10140W        W19620  13.356  13.409   0.295 -0.3789 -0.1179  0.0733
10141W        W19621  15.304  11.348   6.912  0.2954  0.2073  0.1797
10142W        W19622   0.556   0.299   0.263 -0.1035 -0.0162 -0.0296
10143W        W19623  11.197  13.525   0.558 -0.0673  0.1556  0.2371
10144W        W19624   8.397   5.758   2.189  0.0473 -0.0944 -0.2623
10145W        W19625   0.695  13.376   8.346 -0.2553 -0.2806 -0.3170
10146W        W19626   3.801   9.895   0.060 -0.0837 -0.1404  0.0080
10147W        W19627  12.051  11.428   7.632 -0.2496  0.1227 -0.0240
10148W        W19628  10.356  13.255   7.514 -0.0533 -0.1148  0.0838
10149W        W19629   2.813   3.243   7.238 -0.0171  0.1165  0.0199
10150W        W19630   4.073   2.018   8.010  0.2094 -0.0751  0.1952
10151W        W19631  13.874   3.923   0.440  0.4853 -0.1042 -0.2028
10152W        W19632   5.810  14.332   7.414  0.3978  0.0454  0.0381
10153W        W19633   0.327   3.505   2.252  0.0514 -0.2740 -0.2391
10154W        W19634  12.801   0.684   7.226 -0.2277 -0.1188  0.0012
10155W        W19635  12.284   6.705   2.002 -0.3904 -0.1138 -0.0817
10156W        W19636   1.132   3.684   7.334  0.1881  0.1559  0.0902
10157W        W19637   5.600   4.941   7.617  0.1684 -0.2489  0.0999
10158W        W19638   2.245   9.388   8.959  0.0597 -0.1388  0.2004
10159W        W19639   3.174  15.165   1.591  0.0800 -0.3175 -0.1368
10160W        W19640   4.017  12.863   0.704  0.2626 -0.2280 -0.0505
10161W        W19641   0.139   1.196   6.748 -0.0406  0.0696  0.3268
10162W        W19642   0.708   2.783   0.632  0.0214  0.0521  0.0478
10163W        W19643   7.077   0.577   7.563  0.1941  0.3816 -0.0698
10164W        W19644  13.209   1.151   7.425  0.0641 -0.2343  0.0074
10165W        W19645   0.694   6.376   7.712 -0.0708 -0.0353  0.0416
10166W        W19646   3.880   2.477   2.372  0.1419 -0.1538 -0.2434
10167W        W19647   0.791  14.490   7.278 -0.0333  0.0565  0.0355
10168W        W19648   2.371   0.780   2.225  0.1294 -0.1160 -0.0327
10169W        W19649   1.160  15.231   2.076 -0.0535 -0.0215  0.1967
10170W        W19650   8.202   3.605   8.091 -0.1534 -0.0746  0.0372
10171W        W19651   1.853   7.068   6.290  0.0309  0.3388 -0.1627
10172W        W19652   3.193   8.228   1.434  0.0454 -0.1567  0.2223
10173W        W19653  13.699   4.438   2.800 -0.1079  0.0581  0.1987
10174W        W19654   5.398   3.892   7.248 -0.5433 -0.2061  0.0662
10175W        W19655   2.010   6.926   7.806 -0.1094  0.2151 -0.3872
10176W        W19656   5.826   1.271   7.662 -0.1876  0.0063  0.0856
10177W        W19657   3.682  13.907   1.819  0.0061  0.0302 -0.0704
10178W        W19658   4.511  12.882   2.633 -0.0944 -0.2657  0.0554
10179W        W19659  12.069   1.386   0.995  0.0667  0.1138 -0.0592
10180W        W19660   9.384  14.875   1.909  0.3868  0.2434 -0.1773
10181W        W19661   1.879  13.272   6.824  0.0929  0.2792  0.0275
10182W        W19662  10.012   0.350   8.596 -0.1645 -0.1083 -0.0015
10183W        W19663   4.040  14.891   0.589 -0.3260  0.4639  0.3274
10184W        W19664   5.395  13.869   2.196  0.1648  0.0223 -0.1853
10185W        W19665   8.533   3.991   7.256  0.0531  0.0791 -0.2857
10186W        W19666   8.465  15.102   7.446 -0.3261  0.2940  0.1400
10187W        W19667  10.364   1.339   7.682 -0.0262 -0.0274 -0.0616
10188W        W19668   6.925  13.358   1.564 -0.2146 -0.1378  0.0063
10189W        W19669   3.082   0.822   2.226  0.0099 -0.4103  0.0187
10190W        W19670   6.538   0.874   2.894  0.3187  0.1780  0.0782
10191W        W19671   7.268  14.247   7.965 -0.2083  0.1396 -0.0365
10192W        W19672   0.787   2.061   2.251 -0.1919 -0.1143 -0.2304
10193W        W19673  10.608  10.342   1.826  0.0539  0.1200 -0.0325
10194W        W19674   5.166   7.247   0.896  0.3863  0.0145  0.0052
10195W        W19675   7.371  12.567   1.305 -0.2285 -0.0980 -0.2573
10196W        W19676   2.017   1.906   7.184 -0.3931 -0.1356  0.2759
10197W        W19677   6.522   6.077   8.891 -0.0040  0.1326 -0.0161
10198W        W19678   6.247  12.068   0.937 -0.0556  0.2126  0.0950
10199W        W19679  10.189   4.840   7.670 -0.1693 -0.1127 -0.0440
10200W        W19680   3.161   6.079   8.175  0.0523 -0.0115 -0.0070
10201W        W19681   9.961   1.593   8.972 -0.2087 -0.1838  0.0765
10202W        W19682   5.647  13.787   8.051  0.2525 -0.1924 -0.0968
10203W        W19683   6.485  15.177   0.138 -0.0809 -0.2364  0.1092
10204W        W19684   9.048   0.997   2.735 -0.2514 -0.2047 -0.3527
10205W        W19685  11.216   6.617   8.900 -0.2379  0.2231 -0.1618
10206W        W19686   7.826   1.826   0.402  0.4377  0.3175 -0.0730
10207W        W19687  12.038   1.841   1.833  0.0421 -0.0937 -0.3831
10208W        W19688   6.357   4.050   0.192  0.2201 -0.0075  0.0594
10209W        W19689   1.091   8.137   8.583  0.1389  0.2358  0.2541
10210W        W19690  13.323   2.570   8.987 -0.0793 -0.0687  0.0109
10211W        W19691   6.621   0.265   1.491 -0.1887 -0.1935  0.1354
10212W        W19692   7.643  11.716   2.903  0.0077  0.1375  0.2985
10213W        W19693  14.059   2.960   0.062 -0.1892  0.2138  0.0728
10214W        W19694   2.369   5.017   1.729 -0.1262  0.0990 -0.3879
10215W        W19695   7.632   3.928   0.969 -0.0512 -0.4393  0.0803
10216W        W19696   7.749   2.232   8.650  0.1132  0.1644  0.1053
10217W        W19697   2.781   0.510   2.089  0.3733 -0.3435  0.3121
10218W        W19698   7.531   2.295   0.595  0.0749 -0.0471  0.0160
10219W        W19699   7.991   6.023   2.016 -0.0304  0.0877 -0.1214
10220W        W19700   8.733   1.739   7.476 -0.0872 -0.2695 -0.4555
10221W        W19701   7.511   4.462   0.759 -0.0128 -0.0358 -0.3511
10222W        W19702  10.526   5.461   1.049  0.0443  0.3057 -0.0660
10223W        W19703   4.159   0.350   1.092 -0.1541 -0.0643  0.0159
10224W        W19704  14.609  13.153   9.007  0.2067  0.2046 -0.0996
10225W        W19705  12.241   5.606   0.422 -0.1504  0.1828 -0.3216
10226W        W19706   9.721  10.673   0.434 -0.0895 -0.0420  0.0825
10227W        W19707   2.840   6.002   8.959  0.1437  0.0074 -0.0946
10228W        W19708   3.845   3.386   2.058 -0.0678  0.0419  0.2414
10229W        W19709  13.232   9.679   0.225 -0.1595 -0.0546 -0.1970
10230W        W19710  11.331  13.529   1.885 -0.1715 -0.1283  0.1645
10231W        W19711   7.925   5.650   7.139  0.1107  0.1741  0.1349
10232W        W19712   6.827  14.949   8.301  0.0258  0.0969 -0.3637
10233W        W19713  14.424   2.929   0.975  0.0580  0.3091 -0.0075
10234W        W19714  12.712   9.979   0.271  0.2187 -0.1097 -0.0537
10235W        W19715  11.427   2.181   7.390  0.1750 -0.0133 -0.3745
10236W        W19716   2.094  13.437   0.217 -0.0305  0.1035 -0.2470
10237W        W19717  11.250   4.347   7.471  0.1601  0.0687 -0.1638
10238W        W19718   5.224   1.359   0.459  0.3700  0.0840  0.1677
10239W        W19719   1.389   5.606   7.983  0.1493 -0.0331  0.1482
10240W        W19720  14.988  11.837   8.139  0.3942  0.1668 -0.1869
10241W        W19721  14.192  12.255   8.200 -0.2409  0.1676  0.1746
10242W        W19722   3.635   1.683   9.016 -0.1360 -0.0638  0.2126
10243W        W19723   0.625   1.513   1.149  0.1187 -0.0661 -0.3120
10244W        W19724  11.485   4.629   0.963 -0.0616  0.0111 -0.0390
10245W        W19725  10.754  11.824   8.779 -0.1251  0.1360  0.2300
10246W        W19726   1.835   1.234   7.711  0.4240 -0.1649 -0.1957
10247W        W19727  12.003   3.468   2.047 -0.3279  0.0618 -0.1509
10248W        W19728  12.941   3.776   0.265  0.0776 -0.1694 -0.1997
10249W        W19729  14.319   2.036   2.013  0.2015  0.1094 -0.0622
10250W        W19730  13.501   7.469   8.835  0.1259  0.1684  0.2614
10251W        W19731  12.346   0.214   0.391  0.2375 -0.0469 -0.0752
10252W        W19732  12.821   2.839   7.259  0.2397 -0.0036  0.5162
10253W        W19733   1.992  14.941   1.976  0.1109  0.0775  0.4644
10254W        W19734  12.108  13.681   2.207 -0.0695 -0.0941 -0.0523
10255W        W19735   4.623   3.699   1.147 -0.0451 -0.2382  0.1567
10256W        W19736  12.888  11.766   7.298 -0.0746 -0.3252 -0.1271
10257W        W19737  10.457   0.444   6.663  0.1085 -0.0114  0.1968
10258W        W19738   4.197   2.036   7.459 -0.2786  0.1574  0.0973
10259W        W19739  13.924   3.047   7.790  0.1256  0.0541 -0.2323
10260W        W19740  12.480  12.041   8.977  0.1349  0.3454  0.0809
10261W        W19741  12.274  14.795   0.306  0.0783 -0.0142 -0.1878
10262W        W19742   2.769  14.782   1.792  0.0789  0.2408 -0.0830
10263W        W19743  14.157   8.383   2.386  0.0943  0.0131  0.3215
10264W        W19744  13.775   8.493   7.487  0.0106  0.0492 -0.0374
10265W        W19745  13.094   5.385   1.456 -0.4896 -0.1686 -0.2499
10266W        W19746   3.863   8.605   0.211 -0.0300  0.0830  0.1211
10267W        W19747  11.500  14.354   2.112 -0.0842 -0.0518  0.0116
10268W        W19748   3.046   6.769   2.375  0.0542  0.1175  0.0976
10269W        W19749  13.474  10.703   1.762  0.1540 -0.0949  0.2201
10270W        W19750  14.708   7.332   1.701 -0.2069  0.0271 -0.0336
10271W        W19751   0.739   7.063   7.407  0.1994  0.0689  0.2417
10272W        W19752   1.910   3.815   6.283  0.0805 -0.0728 -0.2838
10273W        W19753   1.297   9.511   0.110  0.0121 -0.1953  0.0182
10274W        W19754   3.500   8.626   7.493  0.0178  0.2042 -0.3387
10275W        W19755   2.635   3.958   8.399  0.1441 -0.1206 -0.0578
10276W        W19756  14.090   5.875   8.683 -0.2321 -0.3633  0.0281
10277W        W19757   0.225   3.929   2.019  0.0424 -0.0861 -0.1153
10278W        W19758  15.115  10.635   7.429  0.3180  0.0753  0.3017
10279W        W19759   4.695  14.180   1.332 -0.0312 -0.2048  0.1296
10280W        W19760   1.269   4.608   7.176  0.2289 -0.0038  0.1737
10281W        W19761   1.012   5.089   6.362 -0.2903  0.2219 -0.0585
10282W        W19762   2.600  14.103   8.405 -0.0702  0.1424  0.1453
10283W        W19763   3.414   7.847   1.234 -0.0758 -0.0875 -0.1380
10284W        W19764   0.453  10.230   7.338  0.0717  0.3381 -0.0874
10285W        W19765   1.683  12.846   6.921 -0.3052 -0.4155 -0.4723
10286W        W19766   2.401   2.590   8.905  0.2153 -0.1601 -0.0311
10287W        W19767   4.261   5.900   8.851 -0.1994 -0.0825 -0.1495
10288W        W19768   2.103   3.674   1.747  0.1304  0.2023 -0.0548
10289W        W19769   0.843   6.064   0.853  0.2480 -0.0988 -0.2662
10290W        W19770  12.319   3.108   1.694  0.1013 -0.0946  0.0351
10291W        W19771   4.445   1.505   7.356 -0.2639 -0.2930 -0.4489
10292W        W19772   4.413   7.832   1.043  0.3454  0.2635  0.0079
10293W        W19773   3.877   2.166   7.107  0.0066  0.0566 -0.2672
10294W        W19774   7.421   4.876   7.622  0.0675  0.1086  0.2670
10295W        W19775   0.814   4.233   1.332  0.0960 -0.0173 -0.0516
10296W        W19776   5.691   1.635   7.301 -0.2428 -0.0982  0.0012
10297W        W19777   0.428   2.993   2.042 -0.0983 -0.2187  0.0578
10298W        W19778   8.239   5.524   2.741 -0.1319 -0.0803  0.0124
10299W        W19779   8.397   7.964   7.254  0.0042 -0.3591  0.1228
10300W        W19780   5.658   5.754   6.230 -0.1095 -0.2240  0.3142
10301W        W19781   0.835   4.317   2.614 -0.1804  0.2165 -0.2872
10302W        W19782   1.998  14.436   0.582  0.2905  0.0237 -0.3854
10303W        W19783   5.576  13.014   0.153 -0.1785 -0.2249  0.0654
10304W        W19784   1.737   7.421   0.783 -0.1694 -0.2705 -0.0192
10305W        W19785   8.405   8.358   2.285 -0.1852  0.1877 -0.2501
10306W        W19786  12.533   5.995   2.501 -0.1923 -0.2461 -0.0295
10307W        W19787   9.028   1.767   9.049  0.1004  0.1515 -0.0795
10308W        W19788   1.847   8.013   7.001  0.0061  0.1150 -0.1776
10309W        W19789   9.274   8.310   6.801 -0.0020  0.0354 -0.0858
10310W        W19790   3.087   7.396   2.140  0.0832  0.1077  0.0785
10311W        W19791   9.464   6.055   0.663 -0.0617  0.3334 -0.1447
10312W        W19792  12.380   7.071   7.801 -0.3409 -0.3002 -0.1275
10313W        W19793  13.085   6.593   1.268 -0.1867 -0.3233  0.1392
10314W        W19794   7.368   3.316   7.506  0.0563 -0.0528  0.3282
10315W        W19795   4.302   8.900   7.593 -0.2185 -0.0809 -0.0826
10316W        W19796   9.689   2.742   1.950 -0.0956 -0.1051 -0.1266
10317W        W19797   8.377   2.627   0.652 -0.1159  0.0298  0.0694
10318W        W19798  11.538   2.219   0.621 -0.4595  0.0083 -0.3826
10319W        W19799  10.853   4.247   2.116  0.0394  0.2458 -0.3963
10320W        W19800  15.103   0.458   7.419 -0.0917 -0.4360 -0.1696
10321W        W19801  10.133   3.253   7.933  0.0703  0.1378  0.2927
10322W        W19802  11.479   2.711   0.490  0.0926 -0.1651  0.3322
10323W        W19803   5.833   6.463   7.229  0.2442 -0.0097 -0.2927
10324W        W19804   9.759   3.924   7.580 -0.2282  0.0286  0.2081
10325W        W19805   9.207   2.976   1.713  0.1161  0.0398 -0.5108
10326W        W19806  13.869   4.307   8.742 -0.0223  0.0708 -0.1488
10327W        W19807   7.743   4.457   6.279  0.1229 -0.1842 -0.2779
10328W        W19808   3.657   2.720   0.299 -0.2183  0.1146  0.2283
10329W        W19809   5.411   7.662   8.620  0.0673 -0.0933  0.1305
10330W        W19810   9.426   7.193   7.522 -0.2059  0.0391  0.0770
10331W        W19811   8.216   6.065   0.934  0.3742  0.1521 -0.1017
10332W        W19812  10.271  11.517   8.833 -0.1375 -0.0433  0.0996
10333W        W19813   6.048   6.849   8.454  0.0672 -0.2378 -0.0138
10334W        W19814   4.693   9.683   7.703 -0.2771  0.1990  0.1635
10335W        W19815   8.296   7.861   8.738 -0.1632  0.1694 -0.1042
10336W        W19816   1.014   5.630   0.695  0.1358 -0.0895 -0.1794
10337W        W19817   4.933   7.072   6.957  0.0550 -0.0240 -0.0404
10338W        W19818   0.281   3.489   0.646 -0.0862 -0.0453 -0.2768
10339W        W19819   2.264   9.295   7.897  0.1649  0.0106  0.1749
10340W        W19820  11.508  14.085   7.378 -0.2249  0.0848 -0.1552
10341W        W19821   5.772   3.530   7.896 -0.1101  0.0640  0.0465
10342W        W19822   4.346   1.947   8.402 -0.1938 -0.1698 -0.2746
10343W        W19823   0.524   5.825   1.637 -0.0836 -0.0446 -0.1787
10344W        W19824  12.920   2.135   8.303 -0.0218  0.1483 -0.0524
10345W        W19825   1.293   8.621   1.888  0.2069  0.0405 -0.3167
10346W        W19826  12.199   4.197   0.519  0.3306 -0.0857  0.3107
10347W        W19827  12.649  14.950   0.802 -0.0983  0.1184 -0.3032
10348W        W19828   1.092   1.710   1.100  0.0243  0.1109 -0.1265
10349W        W19829   7.840   1.394   8.585  0.3352  0.0749 -0.0188
10350W        W19830  14.561   2.886   8.616 -0.1659 -0.1583  0.0852
10351W        W19831  10.236   2.318   8.136  0.0874 -0.2431  0.1678
10352W        W19832   6.916   4.294   7.006  0.0495  0.0570  0.1826
10353W        W19833  10.810   4.968   1.347 -0.2112  0.0068 -0.3311
10354W        W19834  10.652   5.375   1.773  0.0672  0.3529  0.3024
10355W        W19835   1.400   4.556   8.181  0.1440 -0.2549  0.0713
10356W        W19836  12.057   6.314   1.064 -0.1272  0.0995  0.1104
10357W        W19837  13.028   2.110   0.178  0.0452  0.0238 -0.0303
10358W        W19838  10.605   4.515   6.304 -0.2424 -0.1311 -0.2137
10359W        W19839  13.015   2.677   1.574 -0.1400  0.1724 -0.3820
10360W        W19840   2.803   6.492   1.916 -0.1823  0.0852 -0.3865
10361W        W19841   2.627   5.553   8.875  0.1293  0.0440  0.0679
10362W        W19842  13.194   1.275   6.850 -0.2039  0.2837 -0.0962
10363W        W19843   2.410   3.715   7.987 -0.2352  0.0281 -0.0163
10364W        W19844   2.569   1.855   0.071  0.1966  0.3831 -0.0509
10365W        W19845   0.032   0.826   0.822 -0.2391  0.0163 -0.2013
10366W        W19846   4.338   7.598   1.463  0.0280  0.1479  0.0221
10367W        W19847  11.788  12.553   1.646  0.3467  0.0711 -0.0888
10368W        W19848   1.430   6.694   8.676  0.0670 -0.1131 -0.1983
10369W        W19849   2.243  11.120   7.114  0.0881 -0.4064 -0.1560
10370W        W19850   5.671   3.498   7.090  0.2009  0.0771  0.2757
10371W        W19851   0.483   7.966   7.102  0.2994 -0.0439 -0.1765
10372W        W19852  14.821   6.590   2.508  0.1352 -0.5306 -0.0945
10373W        W19853  14.771   6.821   0.880 -0.0775  0.0439  0.2216
10374W        W19854   0.139   8.368   8.444  0.0270  0.1157 -0.1821
10375W        W19855   1.404   9.291   0.786 -0.1429 -0.1937 -0.1580
10376W        W19856  12.060   9.093   0.591  0.1201  0.0372 -0.0277
10377W        W19857   6.925  11.914   2.140 -0.0527 -0.0701 -0.2123
10378W        W19858  11.651   9.487   0.639 -0.0913  0.0815 -0.0436
10379W        W19859   0.379   9.433   1.199  0.0983 -0.1376 -0.0384
10380W        W19860   6.625   3.824   7.088 -0.1404  0.1475  0.0743
10381W        W19861  14.042  11.212   2.017  0.2359  0.2135  0.0076
10382W        W19862  13.021   9.196   7.761 -0.0167 -0.0512  0.0594
10383W        W19863  14.782   7.519   8.140  0.1651 -0.0068 -0.4091
10384W        W19864   1.329   5.863   8.978 -0.2058 -0.1367  0.0061
10385W        W19865  14.700   5.305   1.603 -0.1161 -0.2187 -0.0428
10386W        W19866  13.683  11.448   8.671 -0.0965 -0.1529  0.0304
10387W        W19867   3.458  15.047   7.987  0.1064  0.0263 -0.0162
10388W        W19868   4.882   9.363   1.381 -0.1227  0.1706  0.1788
10389W        W19869   6.519  11.458   8.412 -0.1196  0.1851  0.1496
10390W        W19870  14.596  10.051   7.829 -0.2008  0.0599 -0.2459
10391W        W19871   0.899   7.352   0.415 -0.3777  0.3801  0.1174
10392W        W19872   4.698   2.717   7.803 -0.0863 -0.0770 -0.0853
10393W        W19873  10.761   9.879   0.924  0.0945 -0.1309 -0.0789
10394W        W19874   0.482   9.894   0.999 -0.0523 -0.2772 -0.0603
10395W        W19875  13.950  14.470   7.710  0.2025 -0.4822 -0.4033
10396W        W19876   5.925   1.904   7.969  0.3091  0.2272  0.0042
10397W        W19877   4.074  11.394   8.163  0.0879 -0.0313  0.3338
10398W        W19878   3.769  12.207   6.380  0.0202  0.1789 -0.0367
10399W        W19879   2.326   2.343   0.231  0.2446  0.0024 -0.3195
10400W        W19880   0.150   5.242   0.321  0.2362 -0.1655  0.0585
10401W        W19881   5.528   9.733   7.729  0.5583  0.0697  0.0378
10402W        W19882   7.063   9.000   1.990  0.0538 -0.0871 -0.3703
10403W        W19883   4.308   4.960   8.271  0.0675  0.1321  0.0709
10404W        W19884   1.653  12.401   1.152  0.2546 -0.0740 -0.1392
10405W        W19885  10.101  10.535   6.824 -0.1459  0.2214  0.0323
10406W        W19886   3.414  13.510   0.708  0.0057 -0.2072 -0.1194
10407W        W19887   8.485   7.277   0.270  0.1562 -0.0912 -0.0927
10408W        W19888   9.903   5.912   7.112 -0.2403  0.0438 -0.0811
10409W        W19889   4.358   9.925   0.040 -0.0071 -0.0190  0.1034
10410W        W19890   5.037  10.320   1.352 -0.1708 -0.2944  0.1584
10411W        W19891  15.071   8.852   0.195 -0.2794 -0.0717 -0.2678
10412W        W19892   8.651   4.300   8.996 -0.3348  0.2085 -0.2423
10413W        W19893   6.202   4.867   0.541  0.3468 -0.0285 -0.2403
10414W        W19894   3.970  11.244   0.304  0.3098 -0.0382 -0.0113
10415W        W19895   1.581  11.306   0.581  0.3091 -0.0144 -0.1730
10416W        W19896  10.355   1.112   0.765 -0.0603  0.0932 -0.1656
10417W        W19897   4.682   6.521   0.371 -0.1558  0.1796 -0.2716
10418W        W19898   5.020   3.020   6.370 -0.0669 -0.2086  0.1191
10419W        W19899   5.237   9.868   6.515 -0.0754  0.1030 -0.0060
10420W        W19900   0.218  10.594   6.786  0.0834  0.0619  0.2010
10421W        W19901   0.682  10.396   8.836  0.0197 -0.1041  0.0658
10422W        W19902   3.682   0.938   2.193 -0.1650 -0.0374  0.2920
10423W        W19903   4.873   8.100   0.800 -0.2552  0.1322 -0.0395
10424W        W19904   5.295  11.061   8.719 -0.1040 -0.1517 -0.0644
10425W        W19905  14.851   6.064   9.094 -0.1190 -0.2367  0.1237
10426W        W19906   4.108   9.971   8.326  0.1669 -0.0164  0.1468
10427W        W19907   5.467   2.068   8.365 -0.0643  0.0599  0.3120
10428W        W19908   8.909   8.549   7.128 -0.0548  0.0072  0.2481
10429W        W19909   6.982  12.598   0.330 -0.0801 -0.0802  0.0588
10430W        W19910   9.092  10.805   2.251 -0.3084  0.1037  0.0299
10431W        W19911  10.988  10.579   0.088 -0.0107  0.0943  0.2380
10432W        W19912  12.035   2.350   1.708 -0.1556 -0.0033  0.0130
10433W        W19913   0.383  11.351   1.766  0.0046 -0.1722 -0.1331
10434W        W19914  10.591  10.609   0.928  0.0170  0.0765 -0.2115
10435W        W19915   6.772  12.253   0.721 -0.0537 -0.2395  0.3913
10436W        W19916  10.396  11.121   6.811 -0.0977 -0.2057 -0.0739
10437W        W19917   4.923   9.235   0.875  0.0198 -0.1111  0.2541
10438W        W19918   5.239   0.388   1.977  0.0857  0.2411 -0.3351
10439W        W19919   6.122   8.549   7.028 -0.1394 -0.0277 -0.0136
10440W        W19920  13.663   2.832   8.695  0.1498 -0.0229  0.3533
10441W        W19921   7.338   8.893   1.109 -0.2003  0.0229  0.0311
10442W        W19922   6.193   9.501   2.256 -0.0379  0.1854  0.3120
10443W        W19923   9.267  10.521   7.426  0.2283 -0.0731 -0.1344
10444W        W19924  12.610   5.314   1.786 -0.0535  0.2053  0.0951
10445W        W19925  11.880  11.639   1.039 -0.1263  0.1964  0.2373
10446W        W19926   7.088   9.680   0.717  0.0798 -0.0884  0.4047
10447W        W19927   9.607   5.020   2.580  0.2796  0.0029 -0.0345
10448W        W19928   5.804   3.109   7.595 -0.1269  0.3217  0.0574
10449W        W19929  10.075  10.290   7.577  0.2310 -0.0924  0.0385
10450W        W19930  15.034  13.723   2.361 -0.2539  0.1119 -0.2315
10451W        W19931  10.290   6.730   1.057 -0.1260  0.2971  0.0630
10452W        W19932   8.961   6.400   2.504  0.1480  0.2845  0.0074
10453W        W19933   1.667  11.020   1.692  0.0927  0.3179  0.0178
10454W        W19934   9.952   5.611   1.507 -0.0881 -0.1185  0.1859
10455W        W19935  15.078   6.012   2.101  0.0948  0.1829 -0.0160
10456W        W19936  15.411   9.134   7.053  0.3889 -0.0733 -0.0516
10457W        W19937   9.026   2.002   7.096  0.0346  0.0425 -0.3033
10458W        W19938   3.976  11.857   8.052 -0.4531  0.0330 -0.0787
10459W        W19939  13.284   9.286   7.307  0.1087  0.0737 -0.2614
10460W        W19940  10.522  11.616   7.476 -0.1349 -0.0249  0.1304
10461W        W19941   1.361   0.759   1.397  0.3016 -0.3927  0.0225
10462W        W19942  14.202   6.157   0.764  0.1803  0.0563  0.2995
10463W        W19943  10.590  11.153   7.876 -0.1988  0.0662 -0.2306
10464W        W19944  11.288   4.847   2.514  0.1881 -0.1536  0.0035
10465W        W19945  11.820   4.795   1.389  0.3121  0.4140  0.1522
10466W        W19946  14.419  10.867   1.985  0.0820 -0.1281  0.2306
10467W        W19947  11.610   6.888   8.980  0.0354  0.1185 -0.0760
10468W        W19948   9.248   6.136   0.094  0.3197  0.2660  0.1715
10469W        W19949  11.628  12.007   0.807  0.0334  0.3276 -0.1099
10470W        W19950   9.300   5.371   2.242 -0.3415  0.0050 -0.2282
10471W        W19951   7.476   4.811   1.446  0.1164 -0.1901 -0.0483
10472W        W19952   8.048   8.344   7.356 -0.0057  0.1135 -0.0357
10473W        W19953   4.304  13.294   0.718 -0.0862 -0.4083  0.0901
10474W        W19954  11.757   4.323   6.893  0.2869 -0.0304  0.3172
10475W        W19955   1.405   8.199   8.211 -0.2480  0.0503 -0.1021
10476W        W19956  12.635   4.266   8.972  0.1523  0.1755  0.2316
10477W        W19957   5.109   6.910   1.310  0.1445  0.1313 -0.1184
10478W        W19958  10.880   8.417   2.092  0.0722 -0.2379 -0.3667
10479W        W19959   1.790   9.990   8.481  0.2471  0.0463  0.4071
10480W        W19960  13.589   6.018   7.883 -0.1115  0.1728  0.0770
10481W        W19961   6.418   8.133   7.855 -0.2511  0.0876 -0.2769
10482W        W19962   9.020   6.737   8.379 -0.0118  0.1810  0.0720
10483W        W19963   2.458   6.589   7.872 -0.1554  0.0747 -0.2134
10484W        W19964  10.504   4.960   0.936 -0.0827  0.0271  0.0642
10485W        W19965  11.845   3.444   7.565 -0.2276  0.0217 -0.1876
10486W        W19966   9.250   7.652   7.371 -0.3423 -0.1005 -0.1051
10487W        W19967  14.384   7.989   1.212 -0.0481 -0.0971  0.0852
10488W        W19968   9.349  13.689   1.861 -0.0107  0.0484 -0.0278
10489W        W19969   3.874   4.921   9.001 -0.0070  0.2118  0.0773
10490W        W19970   0.418   1.258   7.153 -0.1742 -0.1681 -0.0841
10491W        W19971  14.224  14.072   6.529 -0.1536 -0.1104  0.3079
10492W        W19972   0.949   9.798   8.150 -0.1442 -0.0842  0.1016
10493W        W19973   0.760  14.465   0.998  0.0725  0.1659  0.0063
10494W        W19974   3.633  12.669   2.488  0.1147 -0.1024  0.0981
10495W        W19975  12.605  14.983   1.634 -0.0923 -0.0049 -0.0361
10496W        W19976   2.058  12.920   0.372 -0.4203  0.2000  0.0929
10497W        W19977  14.129   9.399   0.144 -0.1695 -0.0334 -0.0344
10498W        W19978   5.357  10.005   7.011 -0.2116 -0.1750  0.2036
10499W        W19979   0.708  13.982   1.143 -0.0305  0.1641  0.2813
10500W        W19980  14.448  13.877   0.973  0.1007 -0.1101 -0.0789
10501W        W19981   3.978   0.984   0.433  0.1719  0.0507  0.2968
10502W        W19982  10.075   1.335   0.225 -0.1485  0.3833 -0.0696
10503W        W19983  15.136   8.832   0.705  0.2408  0.2120 -0.1810
10504W        W19984   1.228   8.648   7.694  0.1354  0.5596 -0.1931
10505W        W19985   1.863   5.506   8.010  0.0540 -0.1695 -0.0557
10506W        W19986  11.775  11.902   6.298 -0.1173  0.0666  0.0074
10507W        W19987   2.238  14.533   2.404  0.1055 -0.0356 -0.1227
10508W        W19988   1.118   7.327   6.864  0.1661  0.0358  0.0879
10509W        W19989   0.955  11.537   0.048  0.0016  0.2254 -0.1514
10510W        W19990   3.697  12.799   7.730  0.0850 -0.2426  0.0292
10511W        W19991   3.258  12.574   2.132 -0.3306 -0.0163 -0.0038
10512W        W19992   9.131  15.275   8.289 -0.2331  0.0716  0.1652
10513W        W19993   7.241  10.476   8.794 -0.3726  0.2072 -0.3166
10514W        W19994   1.803  10.803   7.071  0.3387 -0.3901  0.0687
10515W        W19995   9.608   4.042   2.277 -0.1314  0.0121 -0.1257
10516W        W19996   4.564   0.071   8.962  0.1405 -0.2077 -0.0494
10517W        W19997   4.861  12.077   8.124  0.1303 -0.2330 -0.3094
10518W        W19998  10.136  10.844   0.203  0.1322 -0.1907 -0.1524
10519W        W19999   5.638   9.606   6.693 -0.1129 -0.2060 -0.0046
10520W        W20000   5.262  12.127   0.329  0.1172 -0.0108  0.5365
10521W        W20001   7.961   3.647   0.634 -0.2141 -0.0615  0.1466
10522W        W20002  10.306  11.356   0.318  0.0727  0.1113  0.0500
10523W        W20003   7.513   7.847   0.746 -0.1559  0.0442 -0.0478
10524W        W20004  10.362  13.285   2.433 -0.0194 -0.2813 -0.1415
10525W        W20005   6.600  11.800   0.030  0.1269 -0.1011  0.0688
10526W        W20006   7.472  10.286   7.888  0.1730 -0.0499  0.0118
10527W        W20007   2.354  12.283   2.617 -0.1308 -0.1175  0.2618
10528W        W20008   0.284  13.595   7.109 -0.1668 -0.0657 -0.1921
10529W        W20009  10.132   2.020   1.021  0.0238  0.0756 -0.1267
10530W        W20010  13.786  13.317   1.755  0.0713 -0.3208  0.3520
10531W        W20011   2.602   8.201   0.920 -0.1870  0.2790 -0.1678
10532W        W20012   4.799  11.865   1.363  0.1396  0.0655  0.4280
10533W        W20013   7.987  13.962   0.098  0.2253  0.0935  0.0461
10534W        W20014   3.623  10.120   1.124  0.1548 -0.0391  0.1757
10535W        W20015  15.132  13.636   0.432 -0.3048 -0.0815 -0.1113
10536W        W20016   1.879   8.320   1.444 -0.0132 -0.3670  0.0942
10537W        W20017   9.921  13.616   0.988  0.0202  0.0765 -0.0309
10538W        W20018   9.782  15.362   7.110  0.2013 -0.2949  0.2930
10539W        W20019  12.423  13.209   1.492 -0.0937 -0.1547  0.5401
10540W        W20020   9.167   6.247   7.578 -0.1595  0.1271  0.1865
10541W        W20021   8.511   9.544   8.590  0.0432  0.1981  0.0935
10542W        W20022  11.144   1.292   0.983 -0.1031  0.1764 -0.3698
10543W        W20023   9.400   6.406   1.627 -0.0417  0.3870  0.0233
10544W        W20024   8.874   1.876   2.228  0.1536 -0.3186 -0.2399
10545W        W20025  11.127   7.976   1.938  0.1686  0.2334  0.2474
10546W        W20026   9.282   0.465   1.834  0.0576  0.1076 -0.1266
10547W        W20027  11.905   4.474   8.713 -0.2008  0.0394  0.2122
10548W        W20028   9.581   0.077   8.458  0.2374 -0.1582  0.0006
10549W        W20029   7.889   9.477   0.301 -0.0137  0.0104  0.0565
10550W        W20030   6.709  13.140   8.047  0.2453  0.0578 -0.0042
10551W        W20031   6.849  11.790   2.761  0.0201 -0.2182  0.0596
10552W        W20032   6.743  10.584   0.494 -0.1002  0.1384 -0.0016
10553W        W20033   6.651   7.892   0.105  0.1824  0.1783  0.3749
10554W        W20034   9.895   1.946   8.002 -0.1022 -0.0668 -0.0685
10555W        W20035   7.341  15.032   0.469 -0.2421  0.2457  0.1335
10556W        W20036  10.768   1.227   7.919  0.0810 -0.0960 -0.0972
10557W        W20037  10.179  10.565   2.094 -0.0740  0.0919  0.3271
10558W        W20038   4.095  11.870   0.585  0.0074 -0.2217 -0.0336
10559W        W20039   3.772  13.834   1.329 -0.2196 -0.0551  0.2587
10560W        W20040   9.404  14.407   1.370  0.0327  0.0962  0.0091
10561W        W20041   8.827  10.333   7.362 -0.2031  0.0881 -0.1200
10562W        W20042   7.917  14.911   1.871 -0.0092 -0.3201 -0.2829
10563W        W20043  15.099  13.417   1.570  0.1459  0.0161 -0.0465
10564W        W20044  11.202   9.299   1.293  0.0199  0.1021  0.1180
10565W        W20045   6.753  14.825   0.497  0.0818 -0.1771 -0.1824
10566W        W20046   9.833   6.544   1.261  0.1593  0.3817  0.0838
10567W        W20047   5.071  11.899   0.707  0.3174 -0.1046 -0.2393
10568W        W20048  12.379  15.089   1.166 -0.0968  0.0941  0.1925
10569W        W20049  10.980   7.922   1.441 -0.0433  0.0860  0.0895
10570W        W20050  14.189   7.548   8.642  0.4716  0.3391 -0.0264
10571W        W20051   9.571  11.592   7.178 -0.4266  0.0764 -0.1241
10572W        W20052  11.363  10.467   2.332 -0.1240 -0.2217  0.1522
10573W        W20053   9.280   8.233   8.149 -0.0601 -0.0360  0.1097
10574W        W20054  11.120  12.971   7.458 -0.1877 -0.2876 -0.0101
10575W        W20055   3.241  15.024   7.402  0.1283  0.0140 -0.0143
10576W        W20056  12.024   9.135   8.772  0.0688 -0.0771  0.0534
10577W        W20057   3.500   7.685   7.081 -0.1774 -0.1172 -0.0156
10578W        W20058   4.808   8.613   0.769 -0.2607  0.2583 -0.3354
10579W        W20059   7.600  11.522   8.582  0.4375  0.1867 -0.2594
10580W        W20060  10.505  11.902   0.799  0.0001  0.1338  0.0776
10581W        W20061   8.482   0.614   0.457 -0.2545  0.0921 -0.1790
10582W        W20062  14.329   1.214   7.954 -0.1188  0.0611 -0.2240
10583W        W20063  10.659   0.914   7.557  0.0650 -0.1727 -0.1350
10584W        W20064   0.653   8.406   7.734  0.3188 -0.2181 -0.0478
10585W        W20065  10.377  10.025   8.680  0.2989  0.1313 -0.1367
10586W        W20066  14.569  12.541   1.594 -0.2536  0.2272  0.0514
10587W        W20067  11.475  13.911   0.328 -0.1196  0.3771  0.2666
10588W        W20068  13.845   9.641   1.051  0.1370 -0.2810  0.0620
10589W        W20069   5.430  10.475   0.232 -0.0137 -0.4759 -0.2195
10590W        W20070  15.367   8.987   1.703  0.1246 -0.1739 -0.1828
10591W        W20071   7.118   5.447   9.023 -0.3271 -0.1528 -0.0073
10592W        W20072  15.053  10.401   0.864  0.1375 -0.0959  0.0391
10593W        W20073   0.847   7.843   8.979 -0.0172 -0.3323  0.3117
10594W        W20074   2.519  13.470   8.819  0.4088  0.0217 -0.0517
10595W        W20075   2.104  12.484   7.286  0.0364  0.2518 -0.0090
10596W        W20076   0.798  10.586   7.563 -0.2869 -0.1369  0.2276
10597W        W20077   8.526   7.670   8.289 -0.1675  0.2382  0.0435
10598W        W20078   7.062   7.709   0.585  0.0122  0.3274  0.3410
10599W        W20079   1.762  13.076   9.054  0.2956  0.0427  0.0678
10600W        W20080  11.190   9.048   0.113 -0.1786  0.3696  0.0762
10601W        W20081   0.888   4.161   8.349 -0.1328 -0.2590  0.1454
10602W        W20082  15.331  12.443   7.650 -0.0114  0.0436  0.0847
10603W        W20083   0.944   0.396   7.390  0.1214 -0.0580  0.1262
10604W        W20084  13.450   5.359   8.363  0.1452  0.0781  0.3873
10605W        W20085  15.305  11.638   7.694  0.0467 -0.2623  0.3500
10606W        W20086   2.463  12.185   1.416  0.0658 -0.0809  0.0185
10607W        W20087   1.229  13.879   0.389  0.2282  0.0447  0.3162
10608W        W20088   1.355   5.760   8.512  0.1406 -0.0393  0.1538
10609W        W20089  14.825  13.199   0.372 -0.1338  0.3430  0.1408
10610W        W20090   2.993  10.633   1.685 -0.1740  0.0549  0.1319
10611W        W20091  14.672   1.307   0.840 -0.0136  0.1724  0.0521
10612W        W20092   3.572  11.569   8.137 -0.0015 -0.1471  0.0204
10613W        W20093   3.306  10.243   1.695 -0.0696 -0.0430  0.0759
10614W        W20094   5.178  10.099   9.049  0.0641  0.0290  0.0231
10615W        W20095   9.480   0.110   7.979  0.3602 -0.2925 -0.3599
10616W        W20096   5.780   2.465   0.460 -0.1581  0.5172 -0.1455
10617W        W20097   8.979   2.442   6.731  0.0012 -0.2944 -0.0377
10618W        W20098   2.221  14.830   0.976  0.0509 -0.1244 -0.0839
10619W        W20099  10.118   0.240   0.422  0.0126  0.0712 -0.1228
10620W        W20100   5.323   5.407   0.119  0.0431  0.0737 -0.2298
10621W        W20101   7.694   9.907   0.547 -0.0568  0.0329  0.0395
10622W        W20102   2.053   1.967   0.996  0.3729 -0.0376 -0.0770
10623W        W20103   4.600   2.242   0.188  0.0496  0.0579  0.1117
10624W        W20104  11.029  13.122   0.234 -0.0749  0.3286  0.1340
10625W        W20105   7.895   2.336   1.907 -0.0162 -0.0963  0.0119
10626W        W20106  11.310   7.772   3.060  0.4360  0.3114  0.0686
10627W        W20107   3.464   7.277   7.378  0.0009 -0.0676  0.2784
10628W        W20108   7.433   9.823   7.746 -0.0927  0.0948  0.2818
10629W        W20109   9.215   3.227   8.898 -0.0881  0.2563  0.0100
10630W        W20110  15.230  13.714   7.393  0.2583  0.1175  0.3146
10631W        W20111   8.434   3.550   0.946 -0.1293 -0.4379 -0.1459
10632W        W20112  14.664  15.343   6.851  0.1563 -0.4021  0.0664
10633W        W20113   6.239   8.098   1.442 -0.0152  0.0531  0.1383
10634W        W20114   7.926   0.015   8.960 -0.2953 -0.1050  0.1390
10635W        W20115  11.122  13.589   0.099  0.2664 -0.0314 -0.2950
10636W        W20116  14.214  10.546   7.614  0.0278  0.0830 -0.0311
10637W        W20117   8.563  12.931   6.810 -0.0646  0.1759  0.2203
10638W        W20118   5.577   3.607   8.755  0.5526 -0.2619 -0.1336
10639W        W20119  13.918   0.639   0.414  0.0169  0.3199  0.1241
10640W        W20120   2.190  10.780   7.881 -0.2107 -0.1108 -0.1960
10641W        W20121  11.494  10.818   0.778  0.1498  0.0822  0.2237
10642W        W20122   9.990  12.277   1.732  0.2987  0.0226 -0.1360
10643W        W20123   0.174   3.959   0.818  0.2217 -0.0464 -0.0930
10644W        W20124  13.649  14.210   8.902  0.1218  0.0242 -0.3045
10645W        W20125   2.412  13.403   7.438 -0.2186 -0.3057 -0.2862
10646W        W20126  12.911  12.613   0.746 -0.0458  0.0467 -0.0876
10647W        W20127  10.503  14.584   7.496  0.0249  0.1055  0.0763
10648W        W20128  13.430   8.565   2.073  0.1112  0.1407 -0.1023
10649W        W20129  14.254  14.728   7.447 -0.0703 -0.2044 -0.0200
10650W        W20130  13.278  14.507   0.264  0.3614  0.0264 -0.2914
10651W        W20131   2.453  14.394   0.896 -0.0334 -0.1622  0.1349
10652ION     NA20132   3.009  14.899   7.830 -0.0309  0.0443 -0.1217
10653ION     NA20133   7.885  14.202   7.330  0.1090  0.1372  0.1850
10654ION     NA20134   3.039   7.930   7.960  0.1100  0.2652 -0.1129
10655ION     NA20135   0.290   7.705   6.311  0.0131 -0.0938  0.0679
10656ION     NA20136   6.216   0.177   2.396  0.2436  0.0746  0.1018
10657ION     NA20137   8.188   3.278   8.878  0.1148  0.0479  0.0216
10658ION     NA20138  10.321   8.431   6.720  0.3868 -0.1107 -0.0855
10659ION     NA20139   0.335   1.148   2.885 -0.1200 -0.0311  0.0914
10660ION     NA20140   1.687  11.438   1.508 -0.1263  0.0260 -0.1317
10661ION     NA20141   8.148   7.504   2.421  0.0174 -0.1440  0.2940
10662ION     NA20142   8.541   7.383   6.679 -0.1820  0.1673  0.1292
10663ION     NA20143   1.145  13.329   8.777  0.2756 -0.6208  0.2571
10664ION     NA20144  10.339   0.045   7.661  0.0726  0.1107  0.1662
10665ION     NA20145   8.588   0.059   2.479  0.0588 -0.2491 -0.1143
10666ION     NA20146  15.113  12.170   6.582  0.2359 -0.2806 -0.0403
10667ION     NA20147   3.685   3.432   7.439  0.2107 -0.1226  0.0739
10668ION     NA20148   1.467   2.067   1.362  0.1762  0.1810  0.0074
10669ION     NA20149   7.838   3.743   2.468 -0.0009  0.0380  0.1939
10670ION     NA20150   3.350   3.882   8.306 -0.2709 -0.1493 -0.4745
10671ION     NA20151  12.795   6.344   0.067 -0.1465  0.0673 -0.0232
10672ION     NA20152  12.423   5.192   8.707  0.1076  0.1770 -0.0078
10673ION     NA20153   2.941   7.174   2.903 -0.0718 -0.1655 -0.0828
10674ION     NA20154   4.906   4.085   0.089 -0.2522 -0.0952 -0.2094
10675ION     NA20155   1.254   0.997   6.829 -0.0026  0.1103 -0.1710
10676ION     NA20156   4.378   2.853   0.295 -0.0916 -0.0697  0.0390
10677ION     NA20157  13.800   3.440   6.531 -0.2115 -0.3181 -0.1154
10678ION     NA20158   7.324   9.268   8.013 -0.2830 -0.0274 -0.0309
10679ION     NA20159  11.610   2.272   0.133 -0.0829 -0.3180  0.1536
10680ION     NA20160  10.421  10.314   6.499  0.1661 -0.2804  0.0272
10681ION     NA20161  14.839   8.022   6.540 -0.0650 -0.2784 -0.0034
10682ION     NA20162  12.152   8.050   6.761 -0.0372 -0.1555 -0.1521
10683ION     NA20163  10.368  12.866   6.250 -0.0636  0.3474 -0.1334
10684ION     NA20164  11.590   1.244   7.635 -0.2166  0.2900 -0.4142
10685ION     NA20165  12.434  14.748   8.060  0.2381  0.1369 -0.0301
10686ION     NA20166   7.073   0.253   6.678 -0.1780  0.2743  0.1982
10687ION     NA20167  14.345  13.416   0.265  0.3067  0.2417  0.1132
10688ION     NA20168   1.408   7.256   6.479  0.1244 -0.1759 -0.4847
10689ION     NA20169  10.170   0.989   7.954 -0.2426 -0.0248 -0.1155
10690ION     NA20170  12.719  12.452   7.305  0.0531  0.1674 -0.1795
10691ION     NA20171   9.655  14.289   7.270  0.0818  0.1285  0.0846
10692ION     NA20172   4.513  15.168   6.827 -0.2005  0.0348 -0.0650
10693ION     NA20173   5.064   4.570   6.525  0.1588 -0.1441 -0.0207
10694ION     NA20174   1.174   4.610   6.193 -0.0589  0.1276 -0.1076
10695ION     NA20175   0.374   1.608   0.346 -0.0584 -0.0112 -0.0038
10696ION     NA20176   3.633   8.179   7.767  0.1032  0.1930  0.0590
10697ION     NA20177  14.623   9.710   1.833 -0.0342 -0.1384  0.1058
10698ION     NA20178  12.440   1.577   0.749  0.0129  0.0224 -0.2290
10699ION     NA20179   7.683   0.176   8.333 -0.0734  0.1349 -0.0795
10700ION     NA20180   0.489   6.516   0.387 -0.5470 -0.0797 -0.0983
10701ION     NA20181  12.534  10.904   2.037 -0.1399 -0.1444  0.0777
10702ION     NA20182  15.042   3.807   2.741 -0.2458 -0.0985  0.0960
10703ION     NA20183   4.008  13.465   6.985 -0.0246 -0.2133  0.0435
10704ION     NA20184   2.478  11.952   6.755  0.1468  0.0213  0.0065
10705ION     NA20185  14.524   7.440   2.632  0.2703 -0.2098  0.0535
10706ION     NA20186  12.256  10.614   2.494 -0.0404  0.3021  0.0283
10707ION     NA20187   6.200  14.869   2.030  0.2789 -0.0429 -0.0511
10708ION     NA20188  15.120   7.103   0.619  0.2607  0.1124 -0.1701
10709ION     NA20189   3.361  12.018   8.324 -0.1490  0.0605 -0.0168
10710ION     NA20190  11.378   1.912   6.957 -0.2033  0.0306 -0.0805
10711ION     NA20191   8.243  10.791   6.487 -0.0548 -0.1459 -0.2598
10712ION     NA20192   9.947   5.307   7.684 -0.1754  0.2119  0.0635
10713ION     NA20193   1.329  11.935   0.820  0.2481 -0.0286 -0.0811
10714ION     NA20194   2.986   1.395   2.712  0.1007  0.3749 -0.0299
10715ION     NA20195  11.865  10.016   1.212  0.1419 -0.2186  0.0221
10716ION     NA20196   1.287   1.405   2.419 -0.3266  0.0449  0.1494
10717ION     NA20197   7.180  13.275   8.236  0.0183 -0.1072 -0.1582
10718ION     NA20198   2.495  10.081   7.240 -0.0641  0.1066 -0.1581
10719ION     NA20199   1.141  13.757   0.957 -0.1788 -0.1672 -0.0332
10720ION     NA20200   6.690  13.819   0.701  0.1868 -0.2472  0.0410
10721ION     NA20201   9.281   8.678   0.675 -0.1207 -0.2368  0.1987
10722ION     NA20202   7.020   7.540   1.547  0.3361  0.0777 -0.0741
10723ION     NA20203   4.499   1.919   1.840 -0.1008 -0.0487 -0.1030
10724ION     NA20204   5.523  10.481   1.302  0.1052  0.1240 -0.0674
10725ION     NA20205  14.085  10.024   7.865  0.0763  0.3443  0.1125
10726ION     NA20206   7.318   7.193   2.440 -0.0664  0.0850 -0.0714
10727ION     NA20207   2.372   1.676   1.268 -0.1844  0.0048  0.2017
10728ION     NA20208  12.165   5.329   0.972 -0.3554  0.2297  0.0441
10729ION     NA20209  11.938  12.354   6.269 -0.2701 -0.0260  0.0115
10730ION     NA20210   0.319   3.445   6.613 -0.2036 -0.0686  0.1607
10731ION     NA20211   9.651  13.226   8.588 -0.0745  0.0164 -0.0977
10732ION     NA20212   1.912   4.742   6.363  0.0261 -0.3576 -0.0327
10733ION     NA20213   1.039   3.838   8.793 -0.0067 -0.3050  0.2982
10734ION     NA20214   7.085   1.689   1.903 -0.0869 -0.0566 -0.1843
10735ION     NA20215  13.701   8.437   2.532 -0.0896 -0.0517 -0.1453
10736ION     NA20216  10.394  10.287   2.430  0.2713  0.2069  0.1224
10737ION     NA20217  12.077   0.346   8.698  0.2204 -0.1928 -0.0405
10738ION     NA20218   3.155   2.218   2.524  0.2738  0.4619 -0.0935
10739ION     NA20219   3.055  15.090   6.483 -0.3266 -0.2242 -0.1695
10740ION     NA20220  11.250   1.261   2.542  0.0737  0.1131 -0.1220
10741ION     NA20221  10.128   6.779   6.493  0.2174  0.2599  0.3399
10742ION     NA20222  12.117   2.002   8.109  0.1763 -0.1672 -0.2010
10743ION     NA20223   7.896  12.672   2.574  0.1228 -0.1526 -0.3477
10744ION     NA20224  13.026   7.828   1.870  0.0138  0.0764 -0.4307
10745ION     NA20225   8.133  13.510   2.574  0.1105  0.4565 -0.0846
10746ION     NA20226  14.147   6.154   1.796  0.1090  0.0311 -0.1130
10747ION     NA20227   8.420   8.198   6.378 -0.3402  0.0329  0.1175
10748ION     NA20228   2.582   8.808   7.454 -0.0165  0.0413 -0.1106
10749ION     NA20229   3.674   6.770   2.738  0.1418  0.1796 -0.1833
10750ION     NA20230  13.993   5.519   6.427 -0.1977  0.0296  0.0806
10751ION     NA20231  10.368   9.382   0.267  0.0360 -0.1860 -0.1641
10752ION     NA20232  12.266   6.141   0.064  0.1938 -0.2259  0.1364
10753ION     NA20233  10.052   3.881   6.552 -0.2536 -0.0787 -0.1087
10754ION     NA20234   9.110   0.870   1.003 -0.0645 -0.0775 -0.0651
10755ION     NA20235   7.505   4.912   8.553 -0.1725  0.2651  0.0187
10756ION     NA20236  12.045   6.823   0.270  0.0002  0.2703  0.2468
10757ION     NA20237   9.387   3.269   0.669 -0.4569 -0.0436  0.0937
10758ION     NA20238  11.700  13.161   6.452 -0.1654  0.2319  0.1359
10759ION     NA20239   4.324   3.984   0.265 -0.2583 -0.0801  0.1385
10760ION     NA20240   6.639   4.806   1.387 -0.0576 -0.0495  0.2161
10761ION     NA20241  11.576   3.084   6.401  0.0795 -0.4399 -0.0827
10762ION     NA20242   4.668   6.688   1.204 -0.5431  0.0624 -0.2017
10763ION     NA20243   5.416   9.901   2.602 -0.1335 -0.1170  0.2479
10764ION     NA20244   1.273  10.395   1.026  0.0472  0.1761  0.0596
10765ION     NA20245   3.318   9.430   2.478  0.1726 -0.2258  0.0860
10766ION     NA20246  10.764  10.971   6.484 -0.2313  0.1779  0.2122
10767ION     NA20247  11.760   4.171   2.486  0.0900  0.0245 -0.1136
10768ION     NA20248   9.795  11.243   8.035  0.1921 -0.2809 -0.4686
10769ION     NA20249   3.972  11.027   2.748  0.0516  0.0360  0.1174
10770ION     NA20250   7.847   1.060   7.797  0.1031 -0.0182  0.0697
10771ION     NA20251  11.273   8.694   2.301 -0.1075  0.0049 -0.0577
10772ION     NA20252  12.170   2.691   1.274  0.2291  0.2617  0.0358
10773ION     NA20253  14.124  11.799   0.947 -0.1548  0.1792 -0.0527
10774ION     NA20254  11.168  10.061   7.359  0.0233 -0.1339 -0.1005
10775ION     NA20255   6.627   1.586   0.982 -0.1824  0.1813 -0.1007
10776ION     NA20256   1.634   4.122   8.143  0.1299  0.0731 -0.0562
10777ION     NA20257   1.639   8.125   7.782  0.1030  0.1599  0.2226
10778ION     NA20258   5.845  14.668   2.598 -0.2294  0.3081 -0.1785
10779ION     NA20259   1.544   9.935   6.408  0.3150 -0.1361 -0.3103
10780ION     NA20260   5.915   0.929   8.234 -0.0637  0.0485 -0.1468
10781ION     NA20261   8.753  12.303   2.403  0.2156 -0.1472 -0.2285
10782ION     NA20262  15.240  12.302   0.306  0.4447  0.0519  0.1673
10783ION     NA20263   1.508  14.006   6.339 -0.1505  0.0460  0.1851
10784ION     NA20264   2.401  12.708   2.395  0.1497 -0.0065 -0.2423
10785ION     NA20265   7.278   7.497   6.505 -0.2309 -0.1494  0.2906
10786ION     NA20266   3.089   2.470   6.858  0.1694 -0.0919  0.3908
10787ION     NA20267  14.076  13.625   1.320  0.1151  0.1812 -0.1497
10788ION     NA20268   1.856   4.541   0.436 -0.0302  0.2144 -0.0007
10789ION     NA20269  11.531  11.585   7.512  0.1374  0.2116 -0.4764
10790ION     NA20270   6.318   3.570   8.439 -0.1972 -0.0515  0.0751
10791ION     NA20271   0.820   9.805   2.186 -0.2059 -0.0788  0.0954
10792ION     NA20272   9.929   6.684   1.785 -0.0819  0.0602  0.0072
10793ION     NA20273   1.167  12.563   8.979 -0.1707 -0.1459 -0.0685
10794ION     NA20274   7.092   2.555   1.347  0.0963 -0.0448  0.1388
10795ION     NA20275   0.519  10.215   2.284  0.0429  0.2381  0.0193
10796ION     NA20276   3.061   3.175   2.642 -0.1936 -0.0787  0.0775
10797ION     NA20277   5.422   1.383   6.923 -0.0045 -0.2921 -0.1348
10798ION     NA20278   7.737  15.373   0.422 -0.0155 -0.0111 -0.3615
10799ION     NA20279  14.425   8.295   8.014 -0.1974  0.0117 -0.1863
10800ION     NA20280   9.680  12.830   0.202 -0.0473  0.1168  0.3661
10801ION     NA20281   4.530   4.234   1.377  0.1919 -0.1802  0.1948
10802ION     NA20282  11.399   7.592   1.683  0.1565 -0.1665  0.1581
10803ION     NA20283   2.140  15.215   2.393  0.1459 -0.3376 -0.2955
10804ION     NA20284   1.645  13.096   6.427  0.0950  0.0927  0.0769
10805ION     NA20285  13.300  11.980   2.358  0.1576 -0.1673 -0.2144
10806ION     NA20286   7.075   9.447   2.277 -0.0697 -0.0296  0.2728
10807ION     NA20287   8.185  14.348   0.989  0.1362  0.3354 -0.2400
10808ION     NA20288   5.025  15.027   0.563  0.0166  0.1008 -0.2201
10809ION     NA20289  14.231  14.440   2.434 -0.1191 -0.2513  0.2178
10810ION     NA20290   3.017   5.783   1.484  0.0493  0.1068 -0.1443
10811ION     NA20291   4.764   5.015   2.119 -0.0669  0.2259  0.0927
10812ION     NA20292   7.735   3.060   6.492 -0.2627  0.1595  0.0834
10813ION     NA20293  14.095   9.533   2.461  0.2016 -0.2358 -0.0484
10814ION     NA20294   9.503   4.745   8.920 -0.0291  0.2209 -0.3636
10815ION     NA20295  11.621   4.974   6.341  0.1138  0.2019 -0.0518
10816ION     NA20296  12.034   3.155   7.129 -0.0969  0.3342 -0.0327
10817ION     NA20297   1.139   4.877   2.687  0.1245  0.0346  0.1680
10818ION     NA20298   1.991   6.958   7.279 -0.1129  0.0749 -0.4081
10819ION     NA20299   3.215  14.609   7.070 -0.0970  0.0441  0.1840
10820ION     NA20300  11.878   5.853   1.709  0.2981 -0.0663  0.0453
10821ION     NA20301  14.050  12.087   2.255  0.1977  0.0006  0.0879
10822ION     NA20302  13.498   1.696   2.455  0.1246 -0.3373 -0.0901
10823ION     NA20303  12.459   8.809   8.310  0.1977 -0.1827 -0.1852
10824ION     NA20304   6.032  11.120   0.054 -0.1184 -0.2165  0.0283
10825ION     NA20305  15.108   4.705   8.157 -0.0161  0.0717  0.0467
10826ION     NA20306   4.079   1.510   0.403 -0.2672  0.4713  0.3999
10827ION     NA20307  10.608   9.422   2.572 -0.3222  0.0121  0.0216
10828ION     NA20308  15.236   5.530   0.070 -0.4995 -0.1382  0.3021
10829ION     NA20309  14.168   0.859   8.563  0.1278  0.3538 -0.2835
10830ION     NA20310   3.926   6.384   7.943 -0.2879 -0.2813  0.3099
10831ION     NA20311  13.163   3.489   0.722 -0.2291  0.0904 -0.0209
10832ION     NA20312  10.657   5.243   6.217  0.1368 -0.2155 -0.0498
10833ION     NA20313   7.476   3.516   8.878 -0.0666  0.1375  0.2835
10834ION     NA20314  10.445   6.059   2.326 -0.0374 -0.0266 -0.0890
10835ION     NA20315  13.843   0.896   6.408 -0.2634 -0.0187  0.0638
10836ION     NA20316   8.736   7.642   0.548  0.2442  0.4155 -0.0078
10837ION     NA20317  12.195   2.201   2.670 -0.1124  0.0976 -0.1865
10838ION     NA20318   4.819   3.173   1.095  0.3468 -0.1349  0.2798
10839ION     NA20319  15.104  13.281   0.867  0.0775 -0.1182  0.1417
10840ION     NA20320   7.637   6.883   7.770 -0.1483 -0.0336 -0.0140
10841ION     NA20321   5.709   9.672   2.177 -0.1401  0.0779 -0.3371
10842ION     NA20322   1.706   0.181   2.549 -0.2208 -0.0517  0.1315
10843ION     NA20323   4.562  13.700   0.864  0.2405 -0.1244  0.1285
10844ION     NA20324  13.035   0.688   1.648  0.0785  0.1668 -0.2845
10845ION     NA20325   0.831   8.975   0.998 -0.2065  0.0258 -0.2785
10846ION     NA20326   6.930   5.921   8.002 -0.1448 -0.5145 -0.1373
10847ION     NA20327  10.234   9.320   6.816  0.1077  0.1598  0.1940
10848ION     NA20328   0.104   2.025   2.464  0.3688 -0.1601  0.0428
10849ION     NA20329   8.591   3.222   7.787 -0.1888  0.1264 -0.2270
10850ION     NA20330   7.444   1.073   8.476  0.0437 -0.2162 -0.1009
10851ION     NA20331   3.265   5.011   9.068  0.2949 -0.1577 -0.0424
10852ION     NA20332  10.102   1.594   1.843  0.4618  0.3567  0.1142
10853ION     NA20333   7.207  15.136   8.636 -0.0764  0.0035  0.1242
10854ION     NA20334  13.970  13.198   6.474 -0.0278  0.0769  0.0580
10855ION     NA20335  12.717   3.584   1.691  0.2915  0.0841 -0.4746
10856ION     NA20336   4.149  15.333   7.653  0.0701  0.1545  0.0222
10857ION     NA20337   3.089   0.893   2.797 -0.1002  0.0052 -0.0173
10858ION     NA20338   0.315  12.336   0.042 -0.1912  0.1442 -0.4337
10859ION     NA20339  13.508  15.103   1.240 -0.0663  0.1405  0.0778
10860ION     NA20340   4.701   5.076   6.460  0.0673 -0.2547 -0.3341
10861ION     NA20341   8.897   4.805   6.601  0.1120 -0.1178  0.0928
10862ION     NA20342  14.088   1.308   6.592 -0.0654  0.3145  0.1399
10863ION     NA20343   7.891   8.189   8.176  0.1189 -0.0666  0.0311
10864ION     NA20344  10.745   6.524   1.250 -0.0538 -0.2051 -0.1493
10865ION     NA20345   2.166   2.231   8.330 -0.2745 -0.0535 -0.1875
10866ION     NA20346   8.280  14.111   8.223 -0.0709 -0.1270 -0.0247
10867ION     NA20347   4.996  11.306   0.562 -0.2106  0.2979  0.0656
10868ION     NA20348   2.731   1.576   6.657  0.1399 -0.1953 -0.1363
10869ION     NA20349  15.199  14.964   7.605 -0.3641  0.0434  0.0862
10870ION     NA20350   4.509  12.721   0.636 -0.3072  0.1285  0.3098
10871ION     NA20351   5.639  10.435   7.085  0.2239 -0.3285  0.1688
10872ION     NA20352  13.385   6.561   0.814  0.1717  0.0525 -0.0246
10873ION     NA20353   8.554  13.612   7.265 -0.2487 -0.2292  0.0537
10874ION     NA20354   9.902   0.844   0.287  0.2492 -0.3093  0.1830
10875ION     NA20355  14.723   1.812   6.531  0.1245 -0.2119 -0.2122
10876ION     NA20356  12.492   8.953   8.891  0.0231 -0.0373  0.1110
10877ION     NA20357  14.699  11.703   7.727 -0.4264  0.1139  0.5076
10878ION     NA20358   0.112   4.911   1.987  0.1441  0.2023  0.0276
10879ION     NA20359   9.032   7.072   8.766  0.0982 -0.0936  0.0946
10880ION     NA20360  13.181  13.688   2.351  0.3575  0.0342 -0.0665
10881ION     NA20361  14.140  12.462   1.398  0.3535  0.1256  0.0261
10882ION     NA20362   4.834   8.518   7.979  0.1575 -0.1434  0.0196
10883ION     NA20363   4.217   3.536   2.381 -0.1940 -0.2213 -0.2930
10884ION     NA20364   8.366   9.660   1.894 -0.0532  0.1637  0.0244
10885ION     NA20365   3.114   8.832   8.382  0.4727 -0.3666 -0.0162
10886ION     NA20366   4.744  10.060   6.779  0.0832  0.1407 -0.2003
10887ION     NA20367   9.822  14.202   2.615 -0.2217  0.2474  0.2569
10888ION     NA20368  12.122  14.073   6.625 -0.2290 -0.0387 -0.1225
10889ION     NA20369  15.322  12.886   8.574  0.0719 -0.0203 -0.0799
10890ION     NA20370  14.264  11.027   2.470 -0.2779 -0.2945 -0.1167
10891ION     NA20371  12.088   4.510   8.247  0.1714 -0.1672 -0.3122
10892ION     NA20372  12.722  14.748   6.723 -0.0676 -0.0770  0.1573
10893ION     NA20373   2.130   0.838   6.636  0.3072 -0.4263  0.1848
10894ION     NA20374   0.605  12.198   2.479  0.0084 -0.0843 -0.4426
10895ION     NA20375   7.687  14.753   6.552  0.1700 -0.4048  0.0031
10896ION     NA20376   8.495   1.795   2.530 -0.0440 -0.4892  0.2254
10897ION     NA20377   8.832   3.411   0.104 -0.4125 -0.2446  0.1244
10898ION     CL20378   6.168   8.875   2.046 -0.0886  0.0149  0.3104
10899ION     CL20379   2.803   7.785   8.502 -0.0990 -0.0285 -0.0684
10900ION     CL20380   9.933   5.587   0.607 -0.0855  0.2518 -0.0258
10901ION     CL20381   0.706   3.461   0.315 -0.1906 -0.1684 -0.0731
10902ION     CL20382   9.364   6.853   2.029  0.0474 -0.0957 -0.3085
10903ION     CL20383  13.556   4.189   0.768 -0.0600 -0.4010 -0.0648
10904ION     CL20384   7.016   1.072   7.639 -0.1080 -0.5330 -0.0426
10905ION     CL20385  10.556  11.714   1.758  0.2196 -0.1371 -0.1019
10906ION     CL20386   2.606   6.406   0.200  0.0589  0.3773 -0.0184
10907ION     CL20387   9.765   3.054   7.542 -0.1264 -0.1155  0.0353
10908ION     CL20388   3.751   3.167   7.864 -0.1447  0.0137 -0.0424
10909ION     CL20389   9.579   8.271   0.882  0.0877 -0.0980 -0.1289
10910ION     CL20390  12.393   6.653   8.981  0.1916 -0.0746 -0.2788
10911ION     CL20391   2.886  14.648   7.405  0.1532  0.0405  0.0900
10912ION     CL20392   4.173   8.994   0.283  0.3463  0.1663 -0.1441
10913ION     CL20393  12.819   4.864   6.440 -0.4126 -0.1002  0.0739
10914ION     CL20394   3.171   8.265   7.616  0.2224 -0.3554  0.3418
10915ION     CL20395   2.950   8.772   7.834  0.1953 -0.1170 -0.2739
10916ION     CL20396   2.840   4.241   1.780  0.1840 -0.1249 -0.1934
10917ION     CL20397   3.656  11.837   7.305 -0.1720  0.0591  0.2512
10918ION     CL20398   5.699   5.943   2.146  0.2559 -0.0687 -0.0548
10919ION     CL20399  14.183  11.641   7.478  0.1014 -0.0192 -0.1374
10920ION     CL20400   0.366   6.140   0.132  0.0685  0.1163 -0.1024
10921ION     CL20401   6.012  13.143   7.340 -0.0992  0.3473  0.1607
10922ION     CL20402  14.494   5.693   8.995  0.0036 -0.1208  0.0542
10923ION     CL20403   1.684   0.289   1.307 -0.0206 -0.0594  0.0506
10924ION     CL20404   3.161   5.575   9.033 -0.0643 -0.1862  0.1570
10925ION     CL20405   6.347   6.435   0.155 -0.0147  0.0872 -0.1718
10926ION     CL20406   3.797   3.592   0.118  0.1028 -0.2255 -0.3589
10927ION     CL20407  15.318  12.610   9.033  0.0494 -0.0101  0.2284
10928ION     CL20408   4.075   2.051   1.567 -0.1335 -0.2565  0.0055
10929ION     CL20409  10.409   5.553   7.644  0.0174 -0.2407  0.2226
10930ION     CL20410   6.748  12.939   0.702 -0.1588 -0.0630 -0.3389
10931ION     CL20411  12.796   3.049   1.823 -0.0418 -0.0395  0.0408
10932ION     CL20412   8.892   7.237   8.304 -0.0505  0.0794 -0.0430
10933ION     CL20413   8.319   0.972   2.205  0.3457  0.3735  0.0570
10934ION     CL20414   4.751   2.242   1.443  0.1809 -0.0706  0.2705
10935ION     CL20415   5.761   2.186   7.122 -0.1284 -0.0347  0.2777
10936ION     CL20416   6.439  14.837   1.593  0.1273 -0.0468  0.0567
10937ION     CL20417  15.393   5.019   9.043  0.1046 -0.0074 -0.0444
10938ION     CL20418  10.845  15.078   0.734  0.2477 -0.1861 -0.1961
10939ION     CL20419   0.691  12.496   8.857 -0.1272 -0.0457 -0.0050
10940ION     CL20420   8.618   5.487   7.344  0.1918  0.0476  0.0410
10941ION     CL20421  12.931   8.767   9.058 -0.2566  0.0607 -0.0609
10942ION     CL20422   2.564  10.354   6.871 -0.4667 -0.0684  0.1774
10943ION     CL20423  10.249  11.221   7.374  0.1335 -0.2071 -0.0317
10944ION     CL20424  10.855   7.486   1.766  0.0421 -0.1709 -0.2172
10945ION     CL20425  12.678   3.507   0.560 -0.1196 -0.3607 -0.1086
10946ION     CL20426   6.476   0.277   8.764  0.2084  0.0820  0.0718
10947ION     CL20427   9.940   4.046   8.847 -0.1693  0.2225  0.0583
10948ION     CL20428  11.505  10.298   7.047  0.1336  0.0125  0.1018
10949ION     CL20429   4.060  15.070   7.202 -0.2489 -0.0820 -0.1840
10950ION     CL20430   9.325   3.471   0.222  0.0127  0.1057  0.0231
10951ION     CL20431   1.387  12.910   8.763  0.2148  0.2043 -0.0630
10952ION     CL20432   1.543  11.140   2.196  0.1933  0.2153 -0.2808
10953ION     CL20433  13.644   9.993   8.040 -0.1442  0.2168 -0.0093
10954ION     CL20434  13.201  11.136   1.764  0.3787 -0.2402  0.1508
10955ION     CL20435   8.191  11.171   8.599  0.0925  0.1000  0.1113
10956ION     CL20436   1.381   7.757   7.952  0.0058 -0.0727  0.1039
10957ION     CL20437   9.560   5.444   7.023 -0.2294  0.1466 -0.0151
10958ION     CL20438   0.072   1.617   9.035  0.2013  0.3436  0.1163
10959ION     CL20439   4.629   3.219   0.574 -0.3511  0.2084  0.0865
10960ION     CL20440  14.825   8.633   7.629 -0.0210 -0.0795 -0.0347
10961ION     CL20441  14.398  11.187   0.109 -0.0350 -0.1237  0.1742
10962ION     CL20442   5.510  14.907   0.301  0.3380 -0.2226  0.0766
10963ION     CL20443  12.643  12.969   7.159  0.0321 -0.2422 -0.0231
10964ION     CL20444   2.155   7.379   1.063 -0.1609 -0.0889  0.0084
10965ION     CL20445   5.363  11.441   0.888  0.1116 -0.0303 -0.0550
10966ION     CL20446   4.468   6.042   8.200  0.2342 -0.1566  0.1377
10967ION     CL20447   9.619  13.802   8.607 -0.2713 -0.3269 -0.1761
10968ION     CL20448   2.568  13.466   1.170  0.3223 -0.0719  0.1352
10969ION     CL20449   7.811   8.770   1.262  0.0384 -0.2302  0.0625
10970ION     CL20450   8.969  12.422   7.699  0.1829  0.2894  0.0825
10971ION     CL20451   7.049   2.375   9.058 -0.1901  0.2307 -0.0640
10972ION     CL20452  14.146  12.017   1.529 -0.1171  0.4001 -0.0086
10973ION     CL20453   1.262  14.572   1.517  0.2550  0.0606  0.0526
10974ION     CL20454   7.307   4.966   9.045  0.1601  0.1410  0.1273
10975ION     CL20455   8.373   3.053   7.300  0.0411 -0.2212  0.1047
10976ION     CL20456  14.209  13.428   1.981  0.1937 -0.0743  0.1626
10977ION     CL20457   0.505   2.045   1.283  0.1252 -0.1437 -0.3421
10978ION     CL20458   1.068  15.367   7.414  0.2584  0.0595  0.1105
10979ION     CL20459   8.482   9.294   1.608  0.1129  0.1682  0.2750
10980ION     CL20460   1.659  10.065   1.424 -0.2521  0.1639  0.1241
10981ION     CL20461   5.688   4.835   7.109  0.4741  0.1259 -0.1600
10982ION     CL20462  10.960   9.395   0.337 -0.0771  0.0437 -0.0617
10983ION     CL20463   2.559  14.916   2.226 -0.1782  0.0178 -0.5033
10984ION     CL20464  10.273   9.142   8.967 -0.0651 -0.0372 -0.1324
10985ION     CL20465  14.738   5.811   6.981 -0.1702  0.0944  0.1427
10986ION     CL20466   7.777   9.775   8.991 -0.1992 -0.0081  0.0855
10987ION     CL20467  14.600  13.721   0.552  0.1122 -0.0214  0.1493
10988ION     CL20468   1.873  11.425   1.952  0.3016  0.2362  0.1030
10989ION     CL20469  13.381   6.205   1.347 -0.0150  0.2408 -0.1683
10990ION     CL20470   9.676   1.118   8.069  0.0833  0.0764  0.1015
10991ION     CL20471  11.987   6.686   0.781 -0.1749 -0.0068  0.1267
10992ION     CL20472   6.397   4.693   8.630 -0.2145  0.1272 -0.0226
10993ION     CL20473   0.765  14.871   0.710  0.0718 -0.2325 -0.0430
10994ION     CL20474   7.883  13.571   2.122 -0.0271  0.0234 -0.5191
10995ION     CL20475  11.513  15.242   2.195  0.0433  0.0574 -0.0190
10996ION     CL20476   7.256   4.544   8.284 -0.2061  0.2004  0.3834
10997ION     CL20477   1.497  13.727   1.366  0.0446  0.1391 -0.0988
10998ION     CL20478  12.097   8.616   8.798 -0.2404 -0.0953  0.0765
10999ION     CL20479  12.015   4.410   0.983  0.3084 -0.0642  0.2016
11000ION     CL20480   8.253  10.223   6.410 -0.1922  0.0732  0.0615
11001ION     CL20481   9.746  13.574   1.609  0.4083 -0.3693  0.2278
11002ION     CL20482  11.958  14.254   7.603  0.2509  0.0278 -0.3393
11003ION     CL20483   4.797   8.019   7.212  0.0946 -0.0854 -0.2257
11004ION     CL20484   3.145   7.573   0.833 -0.0993  0.0893 -0.0238
11005ION     CL20485  13.649   0.746   1.554  0.2250 -0.0640 -0.1612
11006ION     CL20486  12.655   6.043   0.403 -0.1712 -0.0369 -0.1881
11007ION     CL20487   3.815   7.706   7.570 -0.1879  0.0428  0.2444
11008ION     CL20488   4.112   4.361   1.713  0.1858 -0.1609 -0.0713
11009ION     CL20489   5.630  10.817   1.965  0.2628  0.3761 -0.0988
11010ION     CL20490  11.977   1.529   0.503  0.1562 -0.0087 -0.0059
11011ION     CL20491   1.641   3.076   1.099  0.3408  0.0856 -0.0433
11012ION     CL20492   6.711  13.788   0.176 -0.1450  0.0911  0.2584
11013ION     CL20493   7.865   6.629   7.327  0.0507  0.4724 -0.0933
11014ION     CL20494   7.344   1.032   0.017  0.1976 -0.1639  0.2093
11015ION     CL20495   7.862   1.074   7.301  0.3087 -0.0986 -0.1498
11016ION     CL20496   8.850  11.281   0.498 -0.0844  0.2146  0.1688
11017ION     CL20497   1.523  13.566   6.592 -0.0517 -0.1242  0.0923
11018ION     CL20498   5.847  10.829   8.661  0.0824 -0.0362  0.3007
11019ION     CL20499   1.389   4.130   8.691 -0.1321 -0.1562  0.0218
11020ION     CL20500   5.538  10.896   7.828 -0.2148 -0.4749  0.0979
11021ION     CL20501   7.033   3.452   8.500 -0.1520  0.0080  0.1886
11022ION     CL20502  10.172  15.089   7.415  0.0066  0.4463 -0.2376
11023ION     CL20503   4.836   0.392   8.088  0.2136 -0.1952  0.1339
  15.45365  15.45365   9.10139
